; ITP file created by ByteFF-ML, 2026-04-09 23:00:34.393738

[ moleculetype ]
;name             nrexcl
 BOB                   3

[ atoms ]
;       nr            type      resi   res      atom      cgnr      charge          mass ; qtot
         1            b0bf         1   UNL        b0         1     0.93116       10.8120 ; qtot    0.931
         2            o1bf         1   UNL        o1         2    -0.51434       15.9990 ; qtot    0.417
         3            c2bf         1   UNL        c2         3     0.51090       12.0110 ; qtot    0.928
         4            o3bf         1   UNL        o3         4    -0.47935       15.9990 ; qtot    0.448
         5            c4bf         1   UNL        c4         5     0.51090       12.0110 ; qtot    0.959
         6            o5bf         1   UNL        o5         6    -0.47935       15.9990 ; qtot    0.480
         7            o6bf         1   UNL        o6         7    -0.51434       15.9990 ; qtot   -0.034
         8            o7bf         1   UNL        o7         8    -0.51434       15.9990 ; qtot   -0.549
         9            c8bf         1   UNL        c8         9     0.51090       12.0110 ; qtot   -0.038
        10            o9bf         1   UNL        o9        10    -0.47935       15.9990 ; qtot   -0.517
        11           c10bf         1   UNL       c10        11     0.51090       12.0110 ; qtot   -0.006
        12           o11bf         1   UNL       o11        12    -0.47935       15.9990 ; qtot   -0.486
        13           o12bf         1   UNL       o12        13    -0.51434       15.9990 ; qtot   -1.000

[ bonds ]
;       ai        aj funct               r               k
         1         2     1        0.148685   129182.391772
         1         7     1        0.148685   129182.391772
         1         8     1        0.148685   129182.391772
         1        13     1        0.148685   129182.391772
         2         3     1        0.133298   273185.934473
         3         4     1        0.121488   690445.498242
         3         5     1        0.155060   112070.664282
         5         6     1        0.121488   690445.600391
         5         7     1        0.133298   273186.036621
         8         9     1        0.133298   273185.908936
         9        10     1        0.121488   690445.549316
         9        11     1        0.155060   112070.664282
        11        12     1        0.121488   690445.600391
        11        13     1        0.133298   273186.036621

[ angles ]
;       ai        aj        ak funct           theta             cth
         1         2         3     1      112.227509      593.690613
         1         7         5     1      112.227509      593.690294
         1         8         9     1      112.227509      593.690613
         1        13        11     1      112.227509      593.690294
         2         1         7     1      110.123749      433.928350
         2         1         8     1      110.123756      433.928286
         2         1        13     1      110.123749      433.928350
         2         3         4     1      127.022957      687.577796
         2         3         5     1      107.690155      342.511244
         3         5         6     1      125.853317      287.425178
         3         5         7     1      107.690163      342.511181
         4         3         5     1      125.853310      287.425242
         6         5         7     1      127.022957      687.577987
         7         1         8     1      110.123756      433.928350
         7         1        13     1      110.123749      433.928286
         8         1        13     1      110.123756      433.928350
         8         9        10     1      127.022957      687.577923
         8         9        11     1      107.690147      342.511244
         9        11        12     1      125.853317      287.425242
         9        11        13     1      107.690163      342.511117
        10         9        11     1      125.853310      287.425401
        12        11        13     1      127.022957      687.578051

[ dihedrals ] ; propers for gromacs 4.5 or higher, use funct 9
;       ai        aj        ak        al funct           phase               k        pn
         1         2         3         4     9        0.000000       -0.156363         1
         1         2         3         4     9      180.000000       11.909780         2
         1         2         3         4     9        0.000000        0.004871         3
         1         2         3         4     9      180.000000       -0.020668         4
         1         2         3         5     9        0.000000        0.020263         1
         1         2         3         5     9      180.000000       11.735606         2
         1         2         3         5     9        0.000000        0.025343         3
         1         2         3         5     9      180.000000       -0.005903         4
         1         7         5         3     9        0.000000        0.020264         1
         1         7         5         3     9      180.000000       11.735611         2
         1         7         5         3     9        0.000000        0.025344         3
         1         7         5         3     9      180.000000       -0.005902         4
         1         7         5         6     9        0.000000       -0.156365         1
         1         7         5         6     9      180.000000       11.909780         2
         1         7         5         6     9        0.000000        0.004871         3
         1         7         5         6     9      180.000000       -0.020669         4
         1         8         9        10     9        0.000000       -0.156364         1
         1         8         9        10     9      180.000000       11.909780         2
         1         8         9        10     9        0.000000        0.004873         3
         1         8         9        10     9      180.000000       -0.020669         4
         1         8         9        11     9        0.000000        0.020263         1
         1         8         9        11     9      180.000000       11.735606         2
         1         8         9        11     9        0.000000        0.025343         3
         1         8         9        11     9      180.000000       -0.005903         4
         1        13        11         9     9        0.000000        0.020264         1
         1        13        11         9     9      180.000000       11.735611         2
         1        13        11         9     9        0.000000        0.025344         3
         1        13        11         9     9      180.000000       -0.005902         4
         1        13        11        12     9        0.000000       -0.156365         1
         1        13        11        12     9      180.000000       11.909780         2
         1        13        11        12     9        0.000000        0.004871         3
         1        13        11        12     9      180.000000       -0.020669         4
         2         1         7         5     9        0.000000        0.041304         1
         2         1         7         5     9      180.000000        4.793621         2
         2         1         7         5     9        0.000000       -0.099878         3
         2         1         7         5     9      180.000000       -0.000118         4
         2         1         8         9     9        0.000000        0.041304         1
         2         1         8         9     9      180.000000        4.793624         2
         2         1         8         9     9        0.000000       -0.099879         3
         2         1         8         9     9      180.000000       -0.000118         4
         2         1        13        11     9        0.000000        0.041306         1
         2         1        13        11     9      180.000000        4.793621         2
         2         1        13        11     9        0.000000       -0.099879         3
         2         1        13        11     9      180.000000       -0.000118         4
         2         3         5         6     9        0.000000       -0.014887         1
         2         3         5         6     9      180.000000        1.598320         2
         2         3         5         6     9        0.000000       -0.009750         3
         2         3         5         6     9      180.000000       -0.006246         4
         2         3         5         7     9        0.000000        0.018325         1
         2         3         5         7     9      180.000000        1.230578         2
         2         3         5         7     9        0.000000       -0.124060         3
         2         3         5         7     9      180.000000       -0.006156         4
         3         2         1         7     9        0.000000        0.041304         1
         3         2         1         7     9      180.000000        4.793622         2
         3         2         1         7     9        0.000000       -0.099879         3
         3         2         1         7     9      180.000000       -0.000118         4
         3         2         1         8     9        0.000000        0.041303         1
         3         2         1         8     9      180.000000        4.793623         2
         3         2         1         8     9        0.000000       -0.099879         3
         3         2         1         8     9      180.000000       -0.000119         4
         3         2         1        13     9        0.000000        0.041303         1
         3         2         1        13     9      180.000000        4.793622         2
         3         2         1        13     9        0.000000       -0.099879         3
         3         2         1        13     9      180.000000       -0.000118         4
         4         3         5         6     9        0.000000        0.067789         1
         4         3         5         6     9      180.000000        1.014853         2
         4         3         5         6     9        0.000000       -0.032056         3
         4         3         5         6     9      180.000000       -0.002020         4
         4         3         5         7     9        0.000000       -0.014887         1
         4         3         5         7     9      180.000000        1.598320         2
         4         3         5         7     9        0.000000       -0.009751         3
         4         3         5         7     9      180.000000       -0.006246         4
         5         7         1         8     9        0.000000        0.041303         1
         5         7         1         8     9      180.000000        4.793619         2
         5         7         1         8     9        0.000000       -0.099878         3
         5         7         1         8     9      180.000000       -0.000118         4
         5         7         1        13     9        0.000000        0.041305         1
         5         7         1        13     9      180.000000        4.793622         2
         5         7         1        13     9        0.000000       -0.099878         3
         5         7         1        13     9      180.000000       -0.000118         4
         7         1         8         9     9        0.000000        0.041305         1
         7         1         8         9     9      180.000000        4.793623         2
         7         1         8         9     9        0.000000       -0.099880         3
         7         1         8         9     9      180.000000       -0.000118         4
         7         1        13        11     9        0.000000        0.041305         1
         7         1        13        11     9      180.000000        4.793620         2
         7         1        13        11     9        0.000000       -0.099879         3
         7         1        13        11     9      180.000000       -0.000118         4
         8         1        13        11     9        0.000000        0.041305         1
         8         1        13        11     9      180.000000        4.793619         2
         8         1        13        11     9        0.000000       -0.099878         3
         8         1        13        11     9      180.000000       -0.000118         4
         8         9        11        12     9        0.000000       -0.014886         1
         8         9        11        12     9      180.000000        1.598321         2
         8         9        11        12     9        0.000000       -0.009751         3
         8         9        11        12     9      180.000000       -0.006246         4
         8         9        11        13     9        0.000000        0.018327         1
         8         9        11        13     9      180.000000        1.230575         2
         8         9        11        13     9        0.000000       -0.124061         3
         8         9        11        13     9      180.000000       -0.006154         4
         9         8         1        13     9        0.000000        0.041304         1
         9         8         1        13     9      180.000000        4.793620         2
         9         8         1        13     9        0.000000       -0.099878         3
         9         8         1        13     9      180.000000       -0.000118         4
        10         9        11        12     9        0.000000        0.067790         1
        10         9        11        12     9      180.000000        1.014854         2
        10         9        11        12     9        0.000000       -0.032058         3
        10         9        11        12     9      180.000000       -0.002020         4
        10         9        11        13     9        0.000000       -0.014886         1
        10         9        11        13     9      180.000000        1.598319         2
        10         9        11        13     9        0.000000       -0.009750         3
        10         9        11        13     9      180.000000       -0.006246         4

[ dihedrals ] ; impropers
;       ai        aj        ak        al funct           phase               k        pn
         3         2         4         5     4      180.000000       27.893333         2
         3         4         5         2     4      180.000000       27.893333         2
         3         5         2         4     4      180.000000       27.893333         2
         5         3         6         7     4      180.000000       27.893333         2
         5         6         7         3     4      180.000000       27.893333         2
         5         7         3         6     4      180.000000       27.893333         2
         9         8        10        11     4      180.000000       27.893333         2
         9        10        11         8     4      180.000000       27.893333         2
         9        11         8        10     4      180.000000       27.893333         2
        11         9        12        13     4      180.000000       27.893333         2
        11        12        13         9     4      180.000000       27.893333         2
        11        13         9        12     4      180.000000       27.893333         2

[ pairs ]
;       ai        aj funct
         1         4     1
         1         6     1
         1        10     1
         1        12     1
         2         6     1
         2         9     1
         2        11     1
         3         8     1
         3        13     1
         4         6     1
         4         7     1
         5         8     1
         5        13     1
         7         9     1
         7        11     1
         8        12     1
        10        12     1
        10        13     1
