A Gromacs structure file written by ASE 
   13
    1BOB      B    1  -0.000  -0.006  -0.049  0.0000  0.0000  0.0000
    1BOB      O    2  -0.119  -0.044  -0.127  0.0000  0.0000  0.0000
    1BOB      C    3  -0.230  -0.012  -0.046  0.0000  0.0000  0.0000
    1BOB      O    4  -0.346  -0.059  -0.066  0.0000  0.0000  0.0000
    1BOB      C    5  -0.184   0.079   0.058  0.0000  0.0000  0.0000
    1BOB      O    6  -0.257   0.129   0.149  0.0000  0.0000  0.0000
    1BOB      O    7  -0.047   0.103   0.041  0.0000  0.0000  0.0000
    1BOB      O    8   0.118   0.030  -0.128  0.0000  0.0000  0.0000
    1BOB      C    9   0.229   0.018  -0.041  0.0000  0.0000  0.0000
    1BOB      O   10   0.340   0.076  -0.049  0.0000  0.0000  0.0000
    1BOB      C   11   0.186  -0.077   0.062  0.0000  0.0000  0.0000
    1BOB      O   12   0.256  -0.118   0.161  0.0000  0.0000  0.0000
    1BOB      O   13   0.055  -0.118   0.035  0.0000  0.0000  0.0000

