A Gromacs structure file written by ASE 
   28
    1HMDS     C    1  -0.202  -0.116   0.054  0.0000  0.0000  0.0000
    1HMDS    Si    2  -0.139   0.048  -0.009  0.0000  0.0000  0.0000
    1HMDS     C    3  -0.254   0.102  -0.149  0.0000  0.0000  0.0000
    1HMDS     C    4  -0.151   0.178   0.125  0.0000  0.0000  0.0000
    1HMDS     N    5   0.017   0.040  -0.076  0.0000  0.0000  0.0000
    1HMDS    Si    6   0.146  -0.030   0.010  0.0000  0.0000  0.0000
    1HMDS     C    7   0.137  -0.217   0.000  0.0000  0.0000  0.0000
    1HMDS     C    8   0.304   0.023  -0.079  0.0000  0.0000  0.0000
    1HMDS     C    9   0.160   0.024   0.187  0.0000  0.0000  0.0000
    1HMDS     H   10  -0.191  -0.194  -0.021  0.0000  0.0000  0.0000
    1HMDS     H   11  -0.148  -0.147   0.145  0.0000  0.0000  0.0000
    1HMDS     H   12  -0.308  -0.109   0.080  0.0000  0.0000  0.0000
    1HMDS     H   13  -0.357   0.111  -0.113  0.0000  0.0000  0.0000
    1HMDS     H   14  -0.252   0.029  -0.231  0.0000  0.0000  0.0000
    1HMDS     H   15  -0.223   0.199  -0.189  0.0000  0.0000  0.0000
    1HMDS     H   16  -0.105   0.272   0.092  0.0000  0.0000  0.0000
    1HMDS     H   17  -0.255   0.199   0.149  0.0000  0.0000  0.0000
    1HMDS     H   18  -0.101   0.146   0.217  0.0000  0.0000  0.0000
    1HMDS     H   19   0.014   0.004  -0.171  0.0000  0.0000  0.0000
    1HMDS     H   20   0.122  -0.250  -0.103  0.0000  0.0000  0.0000
    1HMDS     H   21   0.055  -0.257   0.061  0.0000  0.0000  0.0000
    1HMDS     H   22   0.230  -0.262   0.037  0.0000  0.0000  0.0000
    1HMDS     H   23   0.302  -0.010  -0.184  0.0000  0.0000  0.0000
    1HMDS     H   24   0.315   0.132  -0.077  0.0000  0.0000  0.0000
    1HMDS     H   25   0.391  -0.022  -0.031  0.0000  0.0000  0.0000
    1HMDS     H   26   0.078  -0.016   0.248  0.0000  0.0000  0.0000
    1HMDS     H   27   0.160   0.133   0.196  0.0000  0.0000  0.0000
    1HMDS     H   28   0.254  -0.012   0.231  0.0000  0.0000  0.0000

