; ITP file created by ByteFF-ML, 2026-04-09 23:00:46.757113

[ moleculetype ]
;name             nrexcl
 HMDS                  3

[ atoms ]
;       nr            type      resi   res      atom      cgnr      charge          mass ; qtot
         1            c0bf         1   UNL        c0         1    -0.60363       12.0110 ; qtot   -0.604
         2           si1bf         1   UNL       si1         2     1.23289       28.0860 ; qtot    0.629
         3            c2bf         1   UNL        c2         3    -0.60363       12.0110 ; qtot    0.026
         4            c3bf         1   UNL        c3         4    -0.60363       12.0110 ; qtot   -0.578
         5            n4bf         1   UNL        n4         5    -1.26604       14.0070 ; qtot   -1.844
         6           si5bf         1   UNL       si5         6     1.23289       28.0860 ; qtot   -0.611
         7            c6bf         1   UNL        c6         7    -0.60363       12.0110 ; qtot   -1.215
         8            c7bf         1   UNL        c7         8    -0.60363       12.0110 ; qtot   -1.818
         9            c8bf         1   UNL        c8         9    -0.60363       12.0110 ; qtot   -2.422
        10            h9bf         1   UNL        h9        10     0.11171        1.0080 ; qtot   -2.310
        11           h10bf         1   UNL       h10        11     0.11171        1.0080 ; qtot   -2.199
        12           h11bf         1   UNL       h11        12     0.11171        1.0080 ; qtot   -2.087
        13           h12bf         1   UNL       h12        13     0.11171        1.0080 ; qtot   -1.975
        14           h13bf         1   UNL       h13        14     0.11171        1.0080 ; qtot   -1.863
        15           h14bf         1   UNL       h14        15     0.11171        1.0080 ; qtot   -1.752
        16           h15bf         1   UNL       h15        16     0.11171        1.0080 ; qtot   -1.640
        17           h16bf         1   UNL       h16        17     0.11171        1.0080 ; qtot   -1.528
        18           h17bf         1   UNL       h17        18     0.11171        1.0080 ; qtot   -1.417
        19           h18bf         1   UNL       h18        19     0.41131        1.0080 ; qtot   -1.005
        20           h19bf         1   UNL       h19        20     0.11171        1.0080 ; qtot   -0.894
        21           h20bf         1   UNL       h20        21     0.11171        1.0080 ; qtot   -0.782
        22           h21bf         1   UNL       h21        22     0.11171        1.0080 ; qtot   -0.670
        23           h22bf         1   UNL       h22        23     0.11171        1.0080 ; qtot   -0.559
        24           h23bf         1   UNL       h23        24     0.11171        1.0080 ; qtot   -0.447
        25           h24bf         1   UNL       h24        25     0.11171        1.0080 ; qtot   -0.335
        26           h25bf         1   UNL       h25        26     0.11171        1.0080 ; qtot   -0.223
        27           h26bf         1   UNL       h26        27     0.11171        1.0080 ; qtot   -0.112
        28           h27bf         1   UNL       h27        28     0.11166        1.0080 ; qtot   -0.000

[ bonds ]
;       ai        aj funct               r               k
         1         2     1        0.188307   153955.456372
         1        10     1        0.109590   305805.429150
         1        11     1        0.109590   305805.429150
         1        12     1        0.109590   305805.429150
         2         3     1        0.188307   153955.456372
         2         4     1        0.188307   153955.456372
         2         5     1        0.174868   190321.155615
         3        13     1        0.109590   305805.429150
         3        14     1        0.109590   305805.429150
         3        15     1        0.109590   305805.403613
         4        16     1        0.109590   305805.403613
         4        17     1        0.109590   305805.403613
         4        18     1        0.109590   305805.403613
         5         6     1        0.174868   190321.079004
         5        19     1        0.101889   406885.470605
         6         7     1        0.188307   153955.481909
         6         8     1        0.188307   153955.481909
         6         9     1        0.188307   153955.481909
         7        20     1        0.109590   305805.429150
         7        21     1        0.109590   305805.429150
         7        22     1        0.109590   305805.403613
         8        23     1        0.109590   305805.403613
         8        24     1        0.109590   305805.403613
         8        25     1        0.109590   305805.403613
         9        26     1        0.109590   305805.403613
         9        27     1        0.109590   305805.403613
         9        28     1        0.109590   305805.403613

[ angles ]
;       ai        aj        ak funct           theta             cth
         1         2         3     1      109.258102      633.369535
         1         2         4     1      109.258102      633.369535
         1         2         5     1      109.909729      509.001355
         2         1        10     1      111.191422      421.790913
         2         1        11     1      111.191422      421.790913
         2         1        12     1      111.191422      421.790913
         2         3        13     1      111.191422      421.790913
         2         3        14     1      111.191422      421.790913
         2         3        15     1      111.191422      421.790945
         2         4        16     1      111.191422      421.790945
         2         4        17     1      111.191422      421.790945
         2         4        18     1      111.191422      421.790945
         2         5         6     1      131.211624      394.274837
         2         5        19     1      114.409531      387.410909
         3         2         4     1      109.258102      633.369535
         3         2         5     1      109.909729      509.001355
         4         2         5     1      109.909729      509.001355
         5         6         7     1      109.909721      509.001291
         5         6         8     1      109.909721      509.001131
         5         6         9     1      109.909721      509.001131
         6         5        19     1      114.409538      387.410782
         6         7        20     1      111.191422      421.790817
         6         7        21     1      111.191422      421.790817
         6         7        22     1      111.191422      421.790817
         6         8        23     1      111.191422      421.790817
         6         8        24     1      111.191422      421.790817
         6         8        25     1      111.191422      421.790817
         6         9        26     1      111.191422      421.790849
         6         9        27     1      111.191422      421.790849
         6         9        28     1      111.191422      421.790849
         7         6         8     1      109.258102      633.369663
         7         6         9     1      109.258102      633.369663
         8         6         9     1      109.258102      633.369663
        10         1        11     1      107.649544      376.682259
        10         1        12     1      107.649544      376.682259
        11         1        12     1      107.649544      376.682259
        13         3        14     1      107.649544      376.682259
        13         3        15     1      107.649544      376.682259
        14         3        15     1      107.649544      376.682259
        16         4        17     1      107.649544      376.682259
        16         4        18     1      107.649544      376.682259
        17         4        18     1      107.649544      376.682259
        20         7        21     1      107.649544      376.682259
        20         7        22     1      107.649544      376.682259
        21         7        22     1      107.649544      376.682259
        23         8        24     1      107.649544      376.682259
        23         8        25     1      107.649544      376.682259
        24         8        25     1      107.649544      376.682259
        26         9        27     1      107.649544      376.682195
        26         9        28     1      107.649544      376.682195
        27         9        28     1      107.649544      376.682195

[ dihedrals ] ; propers for gromacs 4.5 or higher, use funct 9
;       ai        aj        ak        al funct           phase               k        pn
         1         2         3        13     9        0.000000        0.005142         1
         1         2         3        13     9      180.000000       -0.000562         2
         1         2         3        13     9        0.000000        0.552793         3
         1         2         3        13     9      180.000000       -0.001485         4
         1         2         3        14     9        0.000000        0.005142         1
         1         2         3        14     9      180.000000       -0.000562         2
         1         2         3        14     9        0.000000        0.552793         3
         1         2         3        14     9      180.000000       -0.001485         4
         1         2         3        15     9        0.000000        0.005143         1
         1         2         3        15     9      180.000000       -0.000560         2
         1         2         3        15     9        0.000000        0.552795         3
         1         2         3        15     9      180.000000       -0.001486         4
         1         2         4        16     9        0.000000        0.005143         1
         1         2         4        16     9      180.000000       -0.000560         2
         1         2         4        16     9        0.000000        0.552795         3
         1         2         4        16     9      180.000000       -0.001486         4
         1         2         4        17     9        0.000000        0.005143         1
         1         2         4        17     9      180.000000       -0.000560         2
         1         2         4        17     9        0.000000        0.552795         3
         1         2         4        17     9      180.000000       -0.001486         4
         1         2         4        18     9        0.000000        0.005143         1
         1         2         4        18     9      180.000000       -0.000560         2
         1         2         4        18     9        0.000000        0.552795         3
         1         2         4        18     9      180.000000       -0.001486         4
         1         2         5         6     9        0.000000       -0.087349         1
         1         2         5         6     9      180.000000       -0.061995         2
         1         2         5         6     9        0.000000        2.011804         3
         1         2         5         6     9      180.000000       -0.001435         4
         1         2         5        19     9        0.000000       -0.019626         1
         1         2         5        19     9      180.000000        0.130319         2
         1         2         5        19     9        0.000000        0.947716         3
         1         2         5        19     9      180.000000        0.006427         4
         2         5         6         7     9        0.000000       -0.087351         1
         2         5         6         7     9      180.000000       -0.062000         2
         2         5         6         7     9        0.000000        2.011804         3
         2         5         6         7     9      180.000000       -0.001434         4
         2         5         6         8     9        0.000000       -0.087351         1
         2         5         6         8     9      180.000000       -0.062000         2
         2         5         6         8     9        0.000000        2.011804         3
         2         5         6         8     9      180.000000       -0.001434         4
         2         5         6         9     9        0.000000       -0.087351         1
         2         5         6         9     9      180.000000       -0.062000         2
         2         5         6         9     9        0.000000        2.011804         3
         2         5         6         9     9      180.000000       -0.001434         4
         3         2         1        10     9        0.000000        0.005142         1
         3         2         1        10     9      180.000000       -0.000562         2
         3         2         1        10     9        0.000000        0.552793         3
         3         2         1        10     9      180.000000       -0.001485         4
         3         2         1        11     9        0.000000        0.005142         1
         3         2         1        11     9      180.000000       -0.000562         2
         3         2         1        11     9        0.000000        0.552793         3
         3         2         1        11     9      180.000000       -0.001485         4
         3         2         1        12     9        0.000000        0.005142         1
         3         2         1        12     9      180.000000       -0.000562         2
         3         2         1        12     9        0.000000        0.552793         3
         3         2         1        12     9      180.000000       -0.001485         4
         3         2         4        16     9        0.000000        0.005143         1
         3         2         4        16     9      180.000000       -0.000560         2
         3         2         4        16     9        0.000000        0.552795         3
         3         2         4        16     9      180.000000       -0.001486         4
         3         2         4        17     9        0.000000        0.005143         1
         3         2         4        17     9      180.000000       -0.000560         2
         3         2         4        17     9        0.000000        0.552795         3
         3         2         4        17     9      180.000000       -0.001486         4
         3         2         4        18     9        0.000000        0.005143         1
         3         2         4        18     9      180.000000       -0.000560         2
         3         2         4        18     9        0.000000        0.552795         3
         3         2         4        18     9      180.000000       -0.001486         4
         3         2         5         6     9        0.000000       -0.087349         1
         3         2         5         6     9      180.000000       -0.061995         2
         3         2         5         6     9        0.000000        2.011804         3
         3         2         5         6     9      180.000000       -0.001435         4
         3         2         5        19     9        0.000000       -0.019626         1
         3         2         5        19     9      180.000000        0.130319         2
         3         2         5        19     9        0.000000        0.947716         3
         3         2         5        19     9      180.000000        0.006427         4
         4         2         1        10     9        0.000000        0.005142         1
         4         2         1        10     9      180.000000       -0.000562         2
         4         2         1        10     9        0.000000        0.552793         3
         4         2         1        10     9      180.000000       -0.001485         4
         4         2         1        11     9        0.000000        0.005142         1
         4         2         1        11     9      180.000000       -0.000562         2
         4         2         1        11     9        0.000000        0.552793         3
         4         2         1        11     9      180.000000       -0.001485         4
         4         2         1        12     9        0.000000        0.005142         1
         4         2         1        12     9      180.000000       -0.000562         2
         4         2         1        12     9        0.000000        0.552793         3
         4         2         1        12     9      180.000000       -0.001485         4
         4         2         3        13     9        0.000000        0.005142         1
         4         2         3        13     9      180.000000       -0.000562         2
         4         2         3        13     9        0.000000        0.552793         3
         4         2         3        13     9      180.000000       -0.001485         4
         4         2         3        14     9        0.000000        0.005142         1
         4         2         3        14     9      180.000000       -0.000562         2
         4         2         3        14     9        0.000000        0.552793         3
         4         2         3        14     9      180.000000       -0.001485         4
         4         2         3        15     9        0.000000        0.005143         1
         4         2         3        15     9      180.000000       -0.000560         2
         4         2         3        15     9        0.000000        0.552795         3
         4         2         3        15     9      180.000000       -0.001486         4
         4         2         5         6     9        0.000000       -0.087349         1
         4         2         5         6     9      180.000000       -0.061995         2
         4         2         5         6     9        0.000000        2.011804         3
         4         2         5         6     9      180.000000       -0.001435         4
         4         2         5        19     9        0.000000       -0.019626         1
         4         2         5        19     9      180.000000        0.130319         2
         4         2         5        19     9        0.000000        0.947716         3
         4         2         5        19     9      180.000000        0.006427         4
         5         2         1        10     9        0.000000       -0.040259         1
         5         2         1        10     9      180.000000        0.014386         2
         5         2         1        10     9        0.000000        0.374018         3
         5         2         1        10     9      180.000000       -0.006753         4
         5         2         1        11     9        0.000000       -0.040259         1
         5         2         1        11     9      180.000000        0.014386         2
         5         2         1        11     9        0.000000        0.374018         3
         5         2         1        11     9      180.000000       -0.006753         4
         5         2         1        12     9        0.000000       -0.040259         1
         5         2         1        12     9      180.000000        0.014386         2
         5         2         1        12     9        0.000000        0.374018         3
         5         2         1        12     9      180.000000       -0.006753         4
         5         2         3        13     9        0.000000       -0.040259         1
         5         2         3        13     9      180.000000        0.014386         2
         5         2         3        13     9        0.000000        0.374018         3
         5         2         3        13     9      180.000000       -0.006753         4
         5         2         3        14     9        0.000000       -0.040259         1
         5         2         3        14     9      180.000000        0.014386         2
         5         2         3        14     9        0.000000        0.374018         3
         5         2         3        14     9      180.000000       -0.006753         4
         5         2         3        15     9        0.000000       -0.040258         1
         5         2         3        15     9      180.000000        0.014388         2
         5         2         3        15     9        0.000000        0.374014         3
         5         2         3        15     9      180.000000       -0.006754         4
         5         2         4        16     9        0.000000       -0.040258         1
         5         2         4        16     9      180.000000        0.014388         2
         5         2         4        16     9        0.000000        0.374014         3
         5         2         4        16     9      180.000000       -0.006754         4
         5         2         4        17     9        0.000000       -0.040258         1
         5         2         4        17     9      180.000000        0.014388         2
         5         2         4        17     9        0.000000        0.374014         3
         5         2         4        17     9      180.000000       -0.006754         4
         5         2         4        18     9        0.000000       -0.040258         1
         5         2         4        18     9      180.000000        0.014388         2
         5         2         4        18     9        0.000000        0.374014         3
         5         2         4        18     9      180.000000       -0.006754         4
         5         6         7        20     9        0.000000       -0.040258         1
         5         6         7        20     9      180.000000        0.014386         2
         5         6         7        20     9        0.000000        0.374016         3
         5         6         7        20     9      180.000000       -0.006753         4
         5         6         7        21     9        0.000000       -0.040258         1
         5         6         7        21     9      180.000000        0.014386         2
         5         6         7        21     9        0.000000        0.374016         3
         5         6         7        21     9      180.000000       -0.006753         4
         5         6         7        22     9        0.000000       -0.040258         1
         5         6         7        22     9      180.000000        0.014388         2
         5         6         7        22     9        0.000000        0.374015         3
         5         6         7        22     9      180.000000       -0.006753         4
         5         6         8        23     9        0.000000       -0.040258         1
         5         6         8        23     9      180.000000        0.014388         2
         5         6         8        23     9        0.000000        0.374015         3
         5         6         8        23     9      180.000000       -0.006753         4
         5         6         8        24     9        0.000000       -0.040258         1
         5         6         8        24     9      180.000000        0.014388         2
         5         6         8        24     9        0.000000        0.374015         3
         5         6         8        24     9      180.000000       -0.006753         4
         5         6         8        25     9        0.000000       -0.040258         1
         5         6         8        25     9      180.000000        0.014388         2
         5         6         8        25     9        0.000000        0.374015         3
         5         6         8        25     9      180.000000       -0.006753         4
         5         6         9        26     9        0.000000       -0.040258         1
         5         6         9        26     9      180.000000        0.014388         2
         5         6         9        26     9        0.000000        0.374015         3
         5         6         9        26     9      180.000000       -0.006753         4
         5         6         9        27     9        0.000000       -0.040258         1
         5         6         9        27     9      180.000000        0.014388         2
         5         6         9        27     9        0.000000        0.374015         3
         5         6         9        27     9      180.000000       -0.006753         4
         5         6         9        28     9        0.000000       -0.040258         1
         5         6         9        28     9      180.000000        0.014388         2
         5         6         9        28     9        0.000000        0.374015         3
         5         6         9        28     9      180.000000       -0.006753         4
         7         6         5        19     9        0.000000       -0.019626         1
         7         6         5        19     9      180.000000        0.130318         2
         7         6         5        19     9        0.000000        0.947714         3
         7         6         5        19     9      180.000000        0.006429         4
         7         6         8        23     9        0.000000        0.005143         1
         7         6         8        23     9      180.000000       -0.000559         2
         7         6         8        23     9        0.000000        0.552795         3
         7         6         8        23     9      180.000000       -0.001486         4
         7         6         8        24     9        0.000000        0.005143         1
         7         6         8        24     9      180.000000       -0.000559         2
         7         6         8        24     9        0.000000        0.552795         3
         7         6         8        24     9      180.000000       -0.001486         4
         7         6         8        25     9        0.000000        0.005143         1
         7         6         8        25     9      180.000000       -0.000559         2
         7         6         8        25     9        0.000000        0.552795         3
         7         6         8        25     9      180.000000       -0.001486         4
         7         6         9        26     9        0.000000        0.005143         1
         7         6         9        26     9      180.000000       -0.000559         2
         7         6         9        26     9        0.000000        0.552795         3
         7         6         9        26     9      180.000000       -0.001486         4
         7         6         9        27     9        0.000000        0.005143         1
         7         6         9        27     9      180.000000       -0.000559         2
         7         6         9        27     9        0.000000        0.552795         3
         7         6         9        27     9      180.000000       -0.001486         4
         7         6         9        28     9        0.000000        0.005143         1
         7         6         9        28     9      180.000000       -0.000559         2
         7         6         9        28     9        0.000000        0.552795         3
         7         6         9        28     9      180.000000       -0.001486         4
         8         6         5        19     9        0.000000       -0.019626         1
         8         6         5        19     9      180.000000        0.130318         2
         8         6         5        19     9        0.000000        0.947714         3
         8         6         5        19     9      180.000000        0.006429         4
         8         6         7        20     9        0.000000        0.005143         1
         8         6         7        20     9      180.000000       -0.000559         2
         8         6         7        20     9        0.000000        0.552797         3
         8         6         7        20     9      180.000000       -0.001485         4
         8         6         7        21     9        0.000000        0.005143         1
         8         6         7        21     9      180.000000       -0.000559         2
         8         6         7        21     9        0.000000        0.552797         3
         8         6         7        21     9      180.000000       -0.001485         4
         8         6         7        22     9        0.000000        0.005143         1
         8         6         7        22     9      180.000000       -0.000559         2
         8         6         7        22     9        0.000000        0.552795         3
         8         6         7        22     9      180.000000       -0.001486         4
         8         6         9        26     9        0.000000        0.005143         1
         8         6         9        26     9      180.000000       -0.000559         2
         8         6         9        26     9        0.000000        0.552795         3
         8         6         9        26     9      180.000000       -0.001486         4
         8         6         9        27     9        0.000000        0.005143         1
         8         6         9        27     9      180.000000       -0.000559         2
         8         6         9        27     9        0.000000        0.552795         3
         8         6         9        27     9      180.000000       -0.001486         4
         8         6         9        28     9        0.000000        0.005143         1
         8         6         9        28     9      180.000000       -0.000559         2
         8         6         9        28     9        0.000000        0.552795         3
         8         6         9        28     9      180.000000       -0.001486         4
         9         6         5        19     9        0.000000       -0.019626         1
         9         6         5        19     9      180.000000        0.130318         2
         9         6         5        19     9        0.000000        0.947714         3
         9         6         5        19     9      180.000000        0.006429         4
         9         6         7        20     9        0.000000        0.005143         1
         9         6         7        20     9      180.000000       -0.000559         2
         9         6         7        20     9        0.000000        0.552797         3
         9         6         7        20     9      180.000000       -0.001485         4
         9         6         7        21     9        0.000000        0.005143         1
         9         6         7        21     9      180.000000       -0.000559         2
         9         6         7        21     9        0.000000        0.552797         3
         9         6         7        21     9      180.000000       -0.001485         4
         9         6         7        22     9        0.000000        0.005143         1
         9         6         7        22     9      180.000000       -0.000559         2
         9         6         7        22     9        0.000000        0.552795         3
         9         6         7        22     9      180.000000       -0.001486         4
         9         6         8        23     9        0.000000        0.005143         1
         9         6         8        23     9      180.000000       -0.000559         2
         9         6         8        23     9        0.000000        0.552795         3
         9         6         8        23     9      180.000000       -0.001486         4
         9         6         8        24     9        0.000000        0.005143         1
         9         6         8        24     9      180.000000       -0.000559         2
         9         6         8        24     9        0.000000        0.552795         3
         9         6         8        24     9      180.000000       -0.001486         4
         9         6         8        25     9        0.000000        0.005143         1
         9         6         8        25     9      180.000000       -0.000559         2
         9         6         8        25     9        0.000000        0.552795         3
         9         6         8        25     9      180.000000       -0.001486         4

[ pairs ]
;       ai        aj funct
         1         6     1
         1        13     1
         1        14     1
         1        15     1
         1        16     1
         1        17     1
         1        18     1
         1        19     1
         2         7     1
         2         8     1
         2         9     1
         3         6     1
         3        10     1
         3        11     1
         3        12     1
         3        16     1
         3        17     1
         3        18     1
         3        19     1
         4         6     1
         4        10     1
         4        11     1
         4        12     1
         4        13     1
         4        14     1
         4        15     1
         4        19     1
         5        10     1
         5        11     1
         5        12     1
         5        13     1
         5        14     1
         5        15     1
         5        16     1
         5        17     1
         5        18     1
         5        20     1
         5        21     1
         5        22     1
         5        23     1
         5        24     1
         5        25     1
         5        26     1
         5        27     1
         5        28     1
         7        19     1
         7        23     1
         7        24     1
         7        25     1
         7        26     1
         7        27     1
         7        28     1
         8        19     1
         8        20     1
         8        21     1
         8        22     1
         8        26     1
         8        27     1
         8        28     1
         9        19     1
         9        20     1
         9        21     1
         9        22     1
         9        23     1
         9        24     1
         9        25     1
