; ITP file created by ByteFF-ML, 2026-04-09 23:00:55.115175

[ moleculetype ]
;name             nrexcl
 HMDSO                 3

[ atoms ]
;       nr            type      resi   res      atom      cgnr      charge          mass ; qtot
         1            c0bf         1   UNL        c0         1    -0.62594       12.0110 ; qtot   -0.626
         2           si1bf         1   UNL       si1         2     1.18005       28.0860 ; qtot    0.554
         3            c2bf         1   UNL        c2         3    -0.62594       12.0110 ; qtot   -0.072
         4            c3bf         1   UNL        c3         4    -0.62594       12.0110 ; qtot   -0.698
         5            o4bf         1   UNL        o4         5    -0.74346       15.9990 ; qtot   -1.441
         6           si5bf         1   UNL       si5         6     1.18005       28.0860 ; qtot   -0.261
         7            c6bf         1   UNL        c6         7    -0.62594       12.0110 ; qtot   -0.887
         8            c7bf         1   UNL        c7         8    -0.62594       12.0110 ; qtot   -1.513
         9            c8bf         1   UNL        c8         9    -0.62594       12.0110 ; qtot   -2.139
        10            h9bf         1   UNL        h9        10     0.11883        1.0080 ; qtot   -2.020
        11           h10bf         1   UNL       h10        11     0.11883        1.0080 ; qtot   -1.901
        12           h11bf         1   UNL       h11        12     0.11883        1.0080 ; qtot   -1.783
        13           h12bf         1   UNL       h12        13     0.11883        1.0080 ; qtot   -1.664
        14           h13bf         1   UNL       h13        14     0.11883        1.0080 ; qtot   -1.545
        15           h14bf         1   UNL       h14        15     0.11883        1.0080 ; qtot   -1.426
        16           h15bf         1   UNL       h15        16     0.11883        1.0080 ; qtot   -1.307
        17           h16bf         1   UNL       h16        17     0.11883        1.0080 ; qtot   -1.188
        18           h17bf         1   UNL       h17        18     0.11883        1.0080 ; qtot   -1.070
        19           h18bf         1   UNL       h18        19     0.11883        1.0080 ; qtot   -0.951
        20           h19bf         1   UNL       h19        20     0.11883        1.0080 ; qtot   -0.832
        21           h20bf         1   UNL       h20        21     0.11883        1.0080 ; qtot   -0.713
        22           h21bf         1   UNL       h21        22     0.11883        1.0080 ; qtot   -0.594
        23           h22bf         1   UNL       h22        23     0.11883        1.0080 ; qtot   -0.475
        24           h23bf         1   UNL       h23        24     0.11883        1.0080 ; qtot   -0.357
        25           h24bf         1   UNL       h24        25     0.11883        1.0080 ; qtot   -0.238
        26           h25bf         1   UNL       h25        26     0.11883        1.0080 ; qtot   -0.119
        27           h26bf         1   UNL       h26        27     0.11889        1.0080 ; qtot   -0.000

[ bonds ]
;       ai        aj funct               r               k
         1         2     1        0.187911   157481.531055
         1        10     1        0.109600   305982.503467
         1        11     1        0.109600   305982.503467
         1        12     1        0.109600   305982.503467
         2         3     1        0.187911   157481.531055
         2         4     1        0.187911   157481.531055
         2         5     1        0.166335   221879.940918
         3        13     1        0.109600   305982.503467
         3        14     1        0.109600   305982.503467
         3        15     1        0.109600   305982.477930
         4        16     1        0.109600   305982.477930
         4        17     1        0.109600   305982.477930
         4        18     1        0.109600   305982.477930
         5         6     1        0.166335   221879.940918
         6         7     1        0.187911   157481.492749
         6         8     1        0.187911   157481.492749
         6         9     1        0.187911   157481.492749
         7        19     1        0.109600   305982.477930
         7        20     1        0.109600   305982.477930
         7        21     1        0.109600   305982.477930
         8        22     1        0.109600   305982.426855
         8        23     1        0.109600   305982.426855
         8        24     1        0.109600   305982.426855
         9        25     1        0.109600   305982.426855
         9        26     1        0.109600   305982.426855
         9        27     1        0.109600   305982.426855

[ angles ]
;       ai        aj        ak funct           theta             cth
         1         2         3     1      110.462135      626.235552
         1         2         4     1      110.462135      626.235552
         1         2         5     1      108.533371      479.477264
         2         1        10     1      111.128868      420.194014
         2         1        11     1      111.128868      420.194014
         2         1        12     1      111.128868      420.194014
         2         3        13     1      111.128868      420.194014
         2         3        14     1      111.128868      420.194014
         2         3        15     1      111.128868      420.194014
         2         4        16     1      111.128868      420.194014
         2         4        17     1      111.128868      420.194014
         2         4        18     1      111.128868      420.194014
         2         5         6     1      143.428909      167.360000
         3         2         4     1      110.462135      626.235552
         3         2         5     1      108.533371      479.477264
         4         2         5     1      108.533371      479.477264
         5         6         7     1      108.533379      479.476945
         5         6         8     1      108.533379      479.476913
         5         6         9     1      108.533379      479.476913
         6         7        19     1      111.128868      420.194110
         6         7        20     1      111.128868      420.194110
         6         7        21     1      111.128868      420.194110
         6         8        22     1      111.128868      420.194014
         6         8        23     1      111.128868      420.194014
         6         8        24     1      111.128868      420.194014
         6         9        25     1      111.128868      420.194014
         6         9        26     1      111.128868      420.194014
         6         9        27     1      111.128868      420.194014
         7         6         8     1      110.462143      626.235105
         7         6         9     1      110.462143      626.235105
         8         6         9     1      110.462143      626.235105
        10         1        11     1      107.813828      375.879628
        10         1        12     1      107.813828      375.879628
        11         1        12     1      107.813828      375.879628
        13         3        14     1      107.813828      375.879628
        13         3        15     1      107.813828      375.879628
        14         3        15     1      107.813828      375.879628
        16         4        17     1      107.813828      375.879628
        16         4        18     1      107.813828      375.879628
        17         4        18     1      107.813828      375.879628
        19         7        20     1      107.813828      375.879628
        19         7        21     1      107.813828      375.879628
        20         7        21     1      107.813828      375.879628
        22         8        23     1      107.813828      375.879628
        22         8        24     1      107.813828      375.879628
        23         8        24     1      107.813828      375.879628
        25         9        26     1      107.813828      375.879628
        25         9        27     1      107.813828      375.879628
        26         9        27     1      107.813828      375.879628

[ dihedrals ] ; propers for gromacs 4.5 or higher, use funct 9
;       ai        aj        ak        al funct           phase               k        pn
         1         2         3        13     9        0.000000        0.006101         1
         1         2         3        13     9      180.000000        0.002820         2
         1         2         3        13     9        0.000000        0.530892         3
         1         2         3        13     9      180.000000       -0.001760         4
         1         2         3        14     9        0.000000        0.006101         1
         1         2         3        14     9      180.000000        0.002820         2
         1         2         3        14     9        0.000000        0.530892         3
         1         2         3        14     9      180.000000       -0.001760         4
         1         2         3        15     9        0.000000        0.006099         1
         1         2         3        15     9      180.000000        0.002819         2
         1         2         3        15     9        0.000000        0.530893         3
         1         2         3        15     9      180.000000       -0.001760         4
         1         2         4        16     9        0.000000        0.006099         1
         1         2         4        16     9      180.000000        0.002819         2
         1         2         4        16     9        0.000000        0.530893         3
         1         2         4        16     9      180.000000       -0.001760         4
         1         2         4        17     9        0.000000        0.006099         1
         1         2         4        17     9      180.000000        0.002819         2
         1         2         4        17     9        0.000000        0.530893         3
         1         2         4        17     9      180.000000       -0.001760         4
         1         2         4        18     9        0.000000        0.006099         1
         1         2         4        18     9      180.000000        0.002819         2
         1         2         4        18     9        0.000000        0.530893         3
         1         2         4        18     9      180.000000       -0.001760         4
         1         2         5         6     9        0.000000       -3.775227         1
         1         2         5         6     9      180.000000       -0.398606         2
         1         2         5         6     9        0.000000        3.186857         3
         1         2         5         6     9      180.000000       -0.006464         4
         2         5         6         7     9        0.000000       -3.775231         1
         2         5         6         7     9      180.000000       -0.398601         2
         2         5         6         7     9        0.000000        3.186864         3
         2         5         6         7     9      180.000000       -0.006465         4
         2         5         6         8     9        0.000000       -3.775231         1
         2         5         6         8     9      180.000000       -0.398601         2
         2         5         6         8     9        0.000000        3.186864         3
         2         5         6         8     9      180.000000       -0.006465         4
         2         5         6         9     9        0.000000       -3.775231         1
         2         5         6         9     9      180.000000       -0.398601         2
         2         5         6         9     9        0.000000        3.186864         3
         2         5         6         9     9      180.000000       -0.006465         4
         3         2         1        10     9        0.000000        0.006101         1
         3         2         1        10     9      180.000000        0.002820         2
         3         2         1        10     9        0.000000        0.530892         3
         3         2         1        10     9      180.000000       -0.001760         4
         3         2         1        11     9        0.000000        0.006101         1
         3         2         1        11     9      180.000000        0.002820         2
         3         2         1        11     9        0.000000        0.530892         3
         3         2         1        11     9      180.000000       -0.001760         4
         3         2         1        12     9        0.000000        0.006101         1
         3         2         1        12     9      180.000000        0.002820         2
         3         2         1        12     9        0.000000        0.530892         3
         3         2         1        12     9      180.000000       -0.001760         4
         3         2         4        16     9        0.000000        0.006099         1
         3         2         4        16     9      180.000000        0.002819         2
         3         2         4        16     9        0.000000        0.530893         3
         3         2         4        16     9      180.000000       -0.001760         4
         3         2         4        17     9        0.000000        0.006099         1
         3         2         4        17     9      180.000000        0.002819         2
         3         2         4        17     9        0.000000        0.530893         3
         3         2         4        17     9      180.000000       -0.001760         4
         3         2         4        18     9        0.000000        0.006099         1
         3         2         4        18     9      180.000000        0.002819         2
         3         2         4        18     9        0.000000        0.530893         3
         3         2         4        18     9      180.000000       -0.001760         4
         3         2         5         6     9        0.000000       -3.775227         1
         3         2         5         6     9      180.000000       -0.398606         2
         3         2         5         6     9        0.000000        3.186857         3
         3         2         5         6     9      180.000000       -0.006464         4
         4         2         1        10     9        0.000000        0.006101         1
         4         2         1        10     9      180.000000        0.002820         2
         4         2         1        10     9        0.000000        0.530892         3
         4         2         1        10     9      180.000000       -0.001760         4
         4         2         1        11     9        0.000000        0.006101         1
         4         2         1        11     9      180.000000        0.002820         2
         4         2         1        11     9        0.000000        0.530892         3
         4         2         1        11     9      180.000000       -0.001760         4
         4         2         1        12     9        0.000000        0.006101         1
         4         2         1        12     9      180.000000        0.002820         2
         4         2         1        12     9        0.000000        0.530892         3
         4         2         1        12     9      180.000000       -0.001760         4
         4         2         3        13     9        0.000000        0.006100         1
         4         2         3        13     9      180.000000        0.002818         2
         4         2         3        13     9        0.000000        0.530890         3
         4         2         3        13     9      180.000000       -0.001760         4
         4         2         3        14     9        0.000000        0.006100         1
         4         2         3        14     9      180.000000        0.002818         2
         4         2         3        14     9        0.000000        0.530890         3
         4         2         3        14     9      180.000000       -0.001760         4
         4         2         3        15     9        0.000000        0.006100         1
         4         2         3        15     9      180.000000        0.002819         2
         4         2         3        15     9        0.000000        0.530891         3
         4         2         3        15     9      180.000000       -0.001761         4
         4         2         5         6     9        0.000000       -3.775225         1
         4         2         5         6     9      180.000000       -0.398604         2
         4         2         5         6     9        0.000000        3.186867         3
         4         2         5         6     9      180.000000       -0.006464         4
         5         2         1        10     9        0.000000        0.991550         1
         5         2         1        10     9      180.000000        0.045783         2
         5         2         1        10     9        0.000000        0.067118         3
         5         2         1        10     9      180.000000       -0.002563         4
         5         2         1        11     9        0.000000        0.991550         1
         5         2         1        11     9      180.000000        0.045783         2
         5         2         1        11     9        0.000000        0.067118         3
         5         2         1        11     9      180.000000       -0.002563         4
         5         2         1        12     9        0.000000        0.991550         1
         5         2         1        12     9      180.000000        0.045783         2
         5         2         1        12     9        0.000000        0.067118         3
         5         2         1        12     9      180.000000       -0.002563         4
         5         2         3        13     9        0.000000        0.991550         1
         5         2         3        13     9      180.000000        0.045783         2
         5         2         3        13     9        0.000000        0.067118         3
         5         2         3        13     9      180.000000       -0.002563         4
         5         2         3        14     9        0.000000        0.991550         1
         5         2         3        14     9      180.000000        0.045783         2
         5         2         3        14     9        0.000000        0.067118         3
         5         2         3        14     9      180.000000       -0.002563         4
         5         2         3        15     9        0.000000        0.991549         1
         5         2         3        15     9      180.000000        0.045780         2
         5         2         3        15     9        0.000000        0.067115         3
         5         2         3        15     9      180.000000       -0.002564         4
         5         2         4        16     9        0.000000        0.991552         1
         5         2         4        16     9      180.000000        0.045783         2
         5         2         4        16     9        0.000000        0.067119         3
         5         2         4        16     9      180.000000       -0.002564         4
         5         2         4        17     9        0.000000        0.991552         1
         5         2         4        17     9      180.000000        0.045783         2
         5         2         4        17     9        0.000000        0.067119         3
         5         2         4        17     9      180.000000       -0.002564         4
         5         2         4        18     9        0.000000        0.991552         1
         5         2         4        18     9      180.000000        0.045783         2
         5         2         4        18     9        0.000000        0.067119         3
         5         2         4        18     9      180.000000       -0.002564         4
         5         6         7        19     9        0.000000        0.991553         1
         5         6         7        19     9      180.000000        0.045784         2
         5         6         7        19     9        0.000000        0.067117         3
         5         6         7        19     9      180.000000       -0.002563         4
         5         6         7        20     9        0.000000        0.991553         1
         5         6         7        20     9      180.000000        0.045784         2
         5         6         7        20     9        0.000000        0.067117         3
         5         6         7        20     9      180.000000       -0.002563         4
         5         6         7        21     9        0.000000        0.991553         1
         5         6         7        21     9      180.000000        0.045784         2
         5         6         7        21     9        0.000000        0.067117         3
         5         6         7        21     9      180.000000       -0.002563         4
         5         6         8        22     9        0.000000        0.991552         1
         5         6         8        22     9      180.000000        0.045783         2
         5         6         8        22     9        0.000000        0.067116         3
         5         6         8        22     9      180.000000       -0.002564         4
         5         6         8        23     9        0.000000        0.991552         1
         5         6         8        23     9      180.000000        0.045783         2
         5         6         8        23     9        0.000000        0.067116         3
         5         6         8        23     9      180.000000       -0.002564         4
         5         6         8        24     9        0.000000        0.991552         1
         5         6         8        24     9      180.000000        0.045783         2
         5         6         8        24     9        0.000000        0.067116         3
         5         6         8        24     9      180.000000       -0.002564         4
         5         6         9        25     9        0.000000        0.991552         1
         5         6         9        25     9      180.000000        0.045783         2
         5         6         9        25     9        0.000000        0.067116         3
         5         6         9        25     9      180.000000       -0.002564         4
         5         6         9        26     9        0.000000        0.991551         1
         5         6         9        26     9      180.000000        0.045781         2
         5         6         9        26     9        0.000000        0.067117         3
         5         6         9        26     9      180.000000       -0.002564         4
         5         6         9        27     9        0.000000        0.991551         1
         5         6         9        27     9      180.000000        0.045781         2
         5         6         9        27     9        0.000000        0.067117         3
         5         6         9        27     9      180.000000       -0.002564         4
         7         6         8        22     9        0.000000        0.006099         1
         7         6         8        22     9      180.000000        0.002814         2
         7         6         8        22     9        0.000000        0.530891         3
         7         6         8        22     9      180.000000       -0.001760         4
         7         6         8        23     9        0.000000        0.006099         1
         7         6         8        23     9      180.000000        0.002814         2
         7         6         8        23     9        0.000000        0.530891         3
         7         6         8        23     9      180.000000       -0.001760         4
         7         6         8        24     9        0.000000        0.006099         1
         7         6         8        24     9      180.000000        0.002814         2
         7         6         8        24     9        0.000000        0.530891         3
         7         6         8        24     9      180.000000       -0.001760         4
         7         6         9        25     9        0.000000        0.006099         1
         7         6         9        25     9      180.000000        0.002814         2
         7         6         9        25     9        0.000000        0.530891         3
         7         6         9        25     9      180.000000       -0.001760         4
         7         6         9        26     9        0.000000        0.006099         1
         7         6         9        26     9      180.000000        0.002814         2
         7         6         9        26     9        0.000000        0.530891         3
         7         6         9        26     9      180.000000       -0.001760         4
         7         6         9        27     9        0.000000        0.006099         1
         7         6         9        27     9      180.000000        0.002814         2
         7         6         9        27     9        0.000000        0.530891         3
         7         6         9        27     9      180.000000       -0.001760         4
         8         6         7        19     9        0.000000        0.006099         1
         8         6         7        19     9      180.000000        0.002820         2
         8         6         7        19     9        0.000000        0.530892         3
         8         6         7        19     9      180.000000       -0.001761         4
         8         6         7        20     9        0.000000        0.006099         1
         8         6         7        20     9      180.000000        0.002820         2
         8         6         7        20     9        0.000000        0.530892         3
         8         6         7        20     9      180.000000       -0.001761         4
         8         6         7        21     9        0.000000        0.006100         1
         8         6         7        21     9      180.000000        0.002818         2
         8         6         7        21     9        0.000000        0.530894         3
         8         6         7        21     9      180.000000       -0.001760         4
         8         6         9        25     9        0.000000        0.006100         1
         8         6         9        25     9      180.000000        0.002818         2
         8         6         9        25     9        0.000000        0.530891         3
         8         6         9        25     9      180.000000       -0.001760         4
         8         6         9        26     9        0.000000        0.006100         1
         8         6         9        26     9      180.000000        0.002818         2
         8         6         9        26     9        0.000000        0.530891         3
         8         6         9        26     9      180.000000       -0.001760         4
         8         6         9        27     9        0.000000        0.006100         1
         8         6         9        27     9      180.000000        0.002818         2
         8         6         9        27     9        0.000000        0.530891         3
         8         6         9        27     9      180.000000       -0.001760         4
         9         6         7        19     9        0.000000        0.006100         1
         9         6         7        19     9      180.000000        0.002818         2
         9         6         7        19     9        0.000000        0.530894         3
         9         6         7        19     9      180.000000       -0.001760         4
         9         6         7        20     9        0.000000        0.006100         1
         9         6         7        20     9      180.000000        0.002818         2
         9         6         7        20     9        0.000000        0.530894         3
         9         6         7        20     9      180.000000       -0.001760         4
         9         6         7        21     9        0.000000        0.006100         1
         9         6         7        21     9      180.000000        0.002818         2
         9         6         7        21     9        0.000000        0.530894         3
         9         6         7        21     9      180.000000       -0.001760         4
         9         6         8        22     9        0.000000        0.006100         1
         9         6         8        22     9      180.000000        0.002818         2
         9         6         8        22     9        0.000000        0.530891         3
         9         6         8        22     9      180.000000       -0.001760         4
         9         6         8        23     9        0.000000        0.006100         1
         9         6         8        23     9      180.000000        0.002818         2
         9         6         8        23     9        0.000000        0.530891         3
         9         6         8        23     9      180.000000       -0.001760         4
         9         6         8        24     9        0.000000        0.006100         1
         9         6         8        24     9      180.000000        0.002818         2
         9         6         8        24     9        0.000000        0.530891         3
         9         6         8        24     9      180.000000       -0.001760         4

[ pairs ]
;       ai        aj funct
         1         6     1
         1        13     1
         1        14     1
         1        15     1
         1        16     1
         1        17     1
         1        18     1
         2         7     1
         2         8     1
         2         9     1
         3         6     1
         3        10     1
         3        11     1
         3        12     1
         3        16     1
         3        17     1
         3        18     1
         4         6     1
         4        10     1
         4        11     1
         4        12     1
         4        13     1
         4        14     1
         4        15     1
         5        10     1
         5        11     1
         5        12     1
         5        13     1
         5        14     1
         5        15     1
         5        16     1
         5        17     1
         5        18     1
         5        19     1
         5        20     1
         5        21     1
         5        22     1
         5        23     1
         5        24     1
         5        25     1
         5        26     1
         5        27     1
         7        22     1
         7        23     1
         7        24     1
         7        25     1
         7        26     1
         7        27     1
         8        19     1
         8        20     1
         8        21     1
         8        25     1
         8        26     1
         8        27     1
         9        19     1
         9        20     1
         9        21     1
         9        22     1
         9        23     1
         9        24     1
