A Gromacs structure file written by ASE 
   27
    1HMDSO    C    1   0.218   0.109   0.085  0.0000  0.0000  0.0000
    1HMDSO   Si    2   0.155  -0.024  -0.032  0.0000  0.0000  0.0000
    1HMDSO    C    3   0.266  -0.026  -0.184  0.0000  0.0000  0.0000
    1HMDSO    C    4   0.169  -0.191   0.054  0.0000  0.0000  0.0000
    1HMDSO    O    5  -0.003   0.006  -0.078  0.0000  0.0000  0.0000
    1HMDSO   Si    6  -0.156   0.027  -0.015  0.0000  0.0000  0.0000
    1HMDSO    C    7  -0.162   0.177   0.099  0.0000  0.0000  0.0000
    1HMDSO    C    8  -0.280   0.054  -0.154  0.0000  0.0000  0.0000
    1HMDSO    C    9  -0.211  -0.124   0.083  0.0000  0.0000  0.0000
    1HMDSO    H   10   0.210   0.208   0.039  0.0000  0.0000  0.0000
    1HMDSO    H   11   0.161   0.109   0.178  0.0000  0.0000  0.0000
    1HMDSO    H   12   0.323   0.091   0.109  0.0000  0.0000  0.0000
    1HMDSO    H   13   0.234  -0.104  -0.254  0.0000  0.0000  0.0000
    1HMDSO    H   14   0.262   0.070  -0.236  0.0000  0.0000  0.0000
    1HMDSO    H   15   0.370  -0.046  -0.156  0.0000  0.0000  0.0000
    1HMDSO    H   16   0.112  -0.192   0.147  0.0000  0.0000  0.0000
    1HMDSO    H   17   0.132  -0.271  -0.011  0.0000  0.0000  0.0000
    1HMDSO    H   18   0.274  -0.212   0.078  0.0000  0.0000  0.0000
    1HMDSO    H   19  -0.264   0.194   0.135  0.0000  0.0000  0.0000
    1HMDSO    H   20  -0.097   0.163   0.185  0.0000  0.0000  0.0000
    1HMDSO    H   21  -0.130   0.267   0.045  0.0000  0.0000  0.0000
    1HMDSO    H   22  -0.253   0.143  -0.212  0.0000  0.0000  0.0000
    1HMDSO    H   23  -0.381   0.068  -0.114  0.0000  0.0000  0.0000
    1HMDSO    H   24  -0.281  -0.032  -0.221  0.0000  0.0000  0.0000
    1HMDSO    H   25  -0.313  -0.111   0.119  0.0000  0.0000  0.0000
    1HMDSO    H   26  -0.145  -0.139   0.170  0.0000  0.0000  0.0000
    1HMDSO    H   27  -0.207  -0.213   0.021  0.0000  0.0000  0.0000

