; ITP file created by ByteFF-ML, 2026-04-09 23:00:44.682846

[ moleculetype ]
;name             nrexcl
 TEB                   3

[ atoms ]
;       nr            type      resi   res      atom      cgnr      charge          mass ; qtot
         1            c0bf         1   UNL        c0         1    -0.27258       12.0110 ; qtot   -0.273
         2            c1bf         1   UNL        c1         2     0.33540       12.0110 ; qtot    0.063
         3            o2bf         1   UNL        o2         3    -0.62062       15.9990 ; qtot   -0.558
         4            b3bf         1   UNL        b3         4     1.02753       10.8120 ; qtot    0.470
         5            o4bf         1   UNL        o4         5    -0.62062       15.9990 ; qtot   -0.151
         6            c5bf         1   UNL        c5         6     0.33540       12.0110 ; qtot    0.185
         7            c6bf         1   UNL        c6         7    -0.27258       12.0110 ; qtot   -0.088
         8            o7bf         1   UNL        o7         8    -0.62062       15.9990 ; qtot   -0.709
         9            c8bf         1   UNL        c8         9     0.33540       12.0110 ; qtot   -0.373
        10            c9bf         1   UNL        c9        10    -0.27258       12.0110 ; qtot   -0.646
        11           h10bf         1   UNL       h10        11     0.08242        1.0080 ; qtot   -0.563
        12           h11bf         1   UNL       h11        12     0.08242        1.0080 ; qtot   -0.481
        13           h12bf         1   UNL       h12        13     0.08242        1.0080 ; qtot   -0.399
        14           h13bf         1   UNL       h13        14    -0.01599        1.0080 ; qtot   -0.415
        15           h14bf         1   UNL       h14        15    -0.01599        1.0080 ; qtot   -0.431
        16           h15bf         1   UNL       h15        16    -0.01599        1.0080 ; qtot   -0.447
        17           h16bf         1   UNL       h16        17    -0.01599        1.0080 ; qtot   -0.463
        18           h17bf         1   UNL       h17        18     0.08242        1.0080 ; qtot   -0.380
        19           h18bf         1   UNL       h18        19     0.08242        1.0080 ; qtot   -0.298
        20           h19bf         1   UNL       h19        20     0.08242        1.0080 ; qtot   -0.215
        21           h20bf         1   UNL       h20        21    -0.01599        1.0080 ; qtot   -0.231
        22           h21bf         1   UNL       h21        22    -0.01599        1.0080 ; qtot   -0.247
        23           h22bf         1   UNL       h22        23     0.08242        1.0080 ; qtot   -0.165
        24           h23bf         1   UNL       h23        24     0.08242        1.0080 ; qtot   -0.082
        25           h24bf         1   UNL       h24        25     0.08245        1.0080 ; qtot    0.000

[ bonds ]
;       ai        aj funct               r               k
         1         2     1        0.152248   198273.564697
         1        11     1        0.109462   302040.825098
         1        12     1        0.109462   302040.825098
         1        13     1        0.109462   302040.825098
         2         3     1        0.143727   186964.889941
         2        14     1        0.109577   295114.522607
         2        15     1        0.109577   295114.522607
         3         4     1        0.137360   291722.607129
         4         5     1        0.137360   291722.607129
         4         8     1        0.137360   291722.607129
         5         6     1        0.143727   186964.889941
         6         7     1        0.152248   198273.564697
         6        16     1        0.109577   295114.548145
         6        17     1        0.109577   295114.548145
         7        18     1        0.109462   302040.850635
         7        19     1        0.109462   302040.850635
         7        20     1        0.109462   302040.799561
         8         9     1        0.143727   186964.928247
         9        10     1        0.152248   198273.551929
         9        21     1        0.109577   295114.471533
         9        22     1        0.109577   295114.471533
        10        23     1        0.109462   302040.876172
        10        24     1        0.109462   302040.876172
        10        25     1        0.109462   302040.876172

[ angles ]
;       ai        aj        ak funct           theta             cth
         1         2         3     1      110.071800      629.215031
         1         2        14     1      110.704590      498.160724
         1         2        15     1      110.704590      498.160724
         2         1        11     1      110.557159      499.555816
         2         1        12     1      110.557159      499.555816
         2         1        13     1      110.557159      499.555816
         2         3         4     1      121.920059      338.254144
         3         2        14     1      108.493073      455.305911
         3         2        15     1      108.493073      455.305911
         3         4         5     1      119.256821      332.364776
         3         4         8     1      119.256821      332.364776
         4         5         6     1      121.920059      338.254144
         4         8         9     1      121.920059      338.254144
         5         4         8     1      119.256821      332.364776
         5         6         7     1      110.071800      629.215094
         5         6        16     1      108.493073      455.305911
         5         6        17     1      108.493073      455.305911
         6         7        18     1      110.557159      499.555848
         6         7        19     1      110.557159      499.555848
         6         7        20     1      110.557152      499.555816
         7         6        16     1      110.704590      498.160820
         7         6        17     1      110.704590      498.160788
         8         9        10     1      110.071800      629.215158
         8         9        21     1      108.493073      455.306007
         8         9        22     1      108.493073      455.306007
         9        10        23     1      110.557159      499.555816
         9        10        24     1      110.557159      499.555816
         9        10        25     1      110.557159      499.555816
        10         9        21     1      110.704590      498.160724
        10         9        22     1      110.704590      498.160724
        11         1        12     1      108.364067      364.223054
        11         1        13     1      108.364067      364.223054
        12         1        13     1      108.364067      364.223054
        14         2        15     1      107.746567      346.889709
        16         6        17     1      107.746567      346.889709
        18         7        19     1      108.364067      364.223022
        18         7        20     1      108.364067      364.223054
        19         7        20     1      108.364067      364.223054
        21         9        22     1      107.746559      346.889678
        23        10        24     1      108.364075      364.223022
        23        10        25     1      108.364075      364.223022
        24        10        25     1      108.364075      364.223022

[ dihedrals ] ; propers for gromacs 4.5 or higher, use funct 9
;       ai        aj        ak        al funct           phase               k        pn
         1         2         3         4     9        0.000000        0.053117         1
         1         2         3         4     9      180.000000        0.044185         2
         1         2         3         4     9        0.000000        1.617871         3
         1         2         3         4     9      180.000000        0.000511         4
         2         3         4         5     9        0.000000        0.004574         1
         2         3         4         5     9      180.000000        4.236987         2
         2         3         4         5     9        0.000000        0.119841         3
         2         3         4         5     9      180.000000       -0.004735         4
         2         3         4         8     9        0.000000        0.004574         1
         2         3         4         8     9      180.000000        4.236987         2
         2         3         4         8     9        0.000000        0.119841         3
         2         3         4         8     9      180.000000       -0.004735         4
         3         2         1        11     9        0.000000        0.976266         1
         3         2         1        11     9      180.000000        0.003780         2
         3         2         1        11     9        0.000000       -0.021580         3
         3         2         1        11     9      180.000000       -0.006267         4
         3         2         1        12     9        0.000000        0.976266         1
         3         2         1        12     9      180.000000        0.003780         2
         3         2         1        12     9        0.000000       -0.021580         3
         3         2         1        12     9      180.000000       -0.006267         4
         3         2         1        13     9        0.000000        0.976266         1
         3         2         1        13     9      180.000000        0.003780         2
         3         2         1        13     9        0.000000       -0.021580         3
         3         2         1        13     9      180.000000       -0.006267         4
         3         4         5         6     9        0.000000        0.004574         1
         3         4         5         6     9      180.000000        4.236987         2
         3         4         5         6     9        0.000000        0.119841         3
         3         4         5         6     9      180.000000       -0.004735         4
         3         4         8         9     9        0.000000        0.004574         1
         3         4         8         9     9      180.000000        4.236987         2
         3         4         8         9     9        0.000000        0.119841         3
         3         4         8         9     9      180.000000       -0.004735         4
         4         3         2        14     9        0.000000       -0.006985         1
         4         3         2        14     9      180.000000        0.017475         2
         4         3         2        14     9        0.000000        1.591366         3
         4         3         2        14     9      180.000000       -0.006041         4
         4         3         2        15     9        0.000000       -0.006985         1
         4         3         2        15     9      180.000000        0.017475         2
         4         3         2        15     9        0.000000        1.591366         3
         4         3         2        15     9      180.000000       -0.006041         4
         4         5         6         7     9        0.000000        0.053117         1
         4         5         6         7     9      180.000000        0.044185         2
         4         5         6         7     9        0.000000        1.617871         3
         4         5         6         7     9      180.000000        0.000511         4
         4         5         6        16     9        0.000000       -0.006985         1
         4         5         6        16     9      180.000000        0.017475         2
         4         5         6        16     9        0.000000        1.591366         3
         4         5         6        16     9      180.000000       -0.006041         4
         4         5         6        17     9        0.000000       -0.006985         1
         4         5         6        17     9      180.000000        0.017475         2
         4         5         6        17     9        0.000000        1.591366         3
         4         5         6        17     9      180.000000       -0.006041         4
         4         8         9        10     9        0.000000        0.053117         1
         4         8         9        10     9      180.000000        0.044185         2
         4         8         9        10     9        0.000000        1.617871         3
         4         8         9        10     9      180.000000        0.000511         4
         4         8         9        21     9        0.000000       -0.006987         1
         4         8         9        21     9      180.000000        0.017477         2
         4         8         9        21     9        0.000000        1.591369         3
         4         8         9        21     9      180.000000       -0.006042         4
         4         8         9        22     9        0.000000       -0.006987         1
         4         8         9        22     9      180.000000        0.017477         2
         4         8         9        22     9        0.000000        1.591369         3
         4         8         9        22     9      180.000000       -0.006042         4
         5         4         8         9     9        0.000000        0.004575         1
         5         4         8         9     9      180.000000        4.236992         2
         5         4         8         9     9        0.000000        0.119841         3
         5         4         8         9     9      180.000000       -0.004734         4
         5         6         7        18     9        0.000000        0.976266         1
         5         6         7        18     9      180.000000        0.003780         2
         5         6         7        18     9        0.000000       -0.021578         3
         5         6         7        18     9      180.000000       -0.006267         4
         5         6         7        19     9        0.000000        0.976266         1
         5         6         7        19     9      180.000000        0.003780         2
         5         6         7        19     9        0.000000       -0.021578         3
         5         6         7        19     9      180.000000       -0.006267         4
         5         6         7        20     9        0.000000        0.976265         1
         5         6         7        20     9      180.000000        0.003780         2
         5         6         7        20     9        0.000000       -0.021581         3
         5         6         7        20     9      180.000000       -0.006266         4
         6         5         4         8     9        0.000000        0.004575         1
         6         5         4         8     9      180.000000        4.236992         2
         6         5         4         8     9        0.000000        0.119841         3
         6         5         4         8     9      180.000000       -0.004734         4
         8         9        10        23     9        0.000000        0.976265         1
         8         9        10        23     9      180.000000        0.003780         2
         8         9        10        23     9        0.000000       -0.021579         3
         8         9        10        23     9      180.000000       -0.006266         4
         8         9        10        24     9        0.000000        0.976265         1
         8         9        10        24     9      180.000000        0.003780         2
         8         9        10        24     9        0.000000       -0.021579         3
         8         9        10        24     9      180.000000       -0.006266         4
         8         9        10        25     9        0.000000        0.976265         1
         8         9        10        25     9      180.000000        0.003780         2
         8         9        10        25     9        0.000000       -0.021579         3
         8         9        10        25     9      180.000000       -0.006266         4
        11         1         2        14     9        0.000000        0.002568         1
        11         1         2        14     9      180.000000       -0.003486         2
        11         1         2        14     9        0.000000        0.656441         3
        11         1         2        14     9      180.000000       -0.001109         4
        11         1         2        15     9        0.000000        0.002568         1
        11         1         2        15     9      180.000000       -0.003486         2
        11         1         2        15     9        0.000000        0.656441         3
        11         1         2        15     9      180.000000       -0.001109         4
        12         1         2        14     9        0.000000        0.002568         1
        12         1         2        14     9      180.000000       -0.003486         2
        12         1         2        14     9        0.000000        0.656441         3
        12         1         2        14     9      180.000000       -0.001109         4
        12         1         2        15     9        0.000000        0.002568         1
        12         1         2        15     9      180.000000       -0.003486         2
        12         1         2        15     9        0.000000        0.656441         3
        12         1         2        15     9      180.000000       -0.001109         4
        13         1         2        14     9        0.000000        0.002568         1
        13         1         2        14     9      180.000000       -0.003489         2
        13         1         2        14     9        0.000000        0.656445         3
        13         1         2        14     9      180.000000       -0.001109         4
        13         1         2        15     9        0.000000        0.002568         1
        13         1         2        15     9      180.000000       -0.003489         2
        13         1         2        15     9        0.000000        0.656445         3
        13         1         2        15     9      180.000000       -0.001109         4
        16         6         7        18     9        0.000000        0.002567         1
        16         6         7        18     9      180.000000       -0.003489         2
        16         6         7        18     9        0.000000        0.656446         3
        16         6         7        18     9      180.000000       -0.001110         4
        16         6         7        19     9        0.000000        0.002567         1
        16         6         7        19     9      180.000000       -0.003489         2
        16         6         7        19     9        0.000000        0.656446         3
        16         6         7        19     9      180.000000       -0.001110         4
        16         6         7        20     9        0.000000        0.002568         1
        16         6         7        20     9      180.000000       -0.003486         2
        16         6         7        20     9        0.000000        0.656445         3
        16         6         7        20     9      180.000000       -0.001110         4
        17         6         7        18     9        0.000000        0.002567         1
        17         6         7        18     9      180.000000       -0.003489         2
        17         6         7        18     9        0.000000        0.656446         3
        17         6         7        18     9      180.000000       -0.001110         4
        17         6         7        19     9        0.000000        0.002567         1
        17         6         7        19     9      180.000000       -0.003489         2
        17         6         7        19     9        0.000000        0.656446         3
        17         6         7        19     9      180.000000       -0.001110         4
        17         6         7        20     9        0.000000        0.002567         1
        17         6         7        20     9      180.000000       -0.003489         2
        17         6         7        20     9        0.000000        0.656445         3
        17         6         7        20     9      180.000000       -0.001110         4
        21         9        10        23     9        0.000000        0.002568         1
        21         9        10        23     9      180.000000       -0.003486         2
        21         9        10        23     9        0.000000        0.656445         3
        21         9        10        23     9      180.000000       -0.001110         4
        21         9        10        24     9        0.000000        0.002568         1
        21         9        10        24     9      180.000000       -0.003486         2
        21         9        10        24     9        0.000000        0.656445         3
        21         9        10        24     9      180.000000       -0.001110         4
        21         9        10        25     9        0.000000        0.002568         1
        21         9        10        25     9      180.000000       -0.003486         2
        21         9        10        25     9        0.000000        0.656445         3
        21         9        10        25     9      180.000000       -0.001110         4
        22         9        10        23     9        0.000000        0.002568         1
        22         9        10        23     9      180.000000       -0.003486         2
        22         9        10        23     9        0.000000        0.656445         3
        22         9        10        23     9      180.000000       -0.001110         4
        22         9        10        24     9        0.000000        0.002568         1
        22         9        10        24     9      180.000000       -0.003486         2
        22         9        10        24     9        0.000000        0.656445         3
        22         9        10        24     9      180.000000       -0.001110         4
        22         9        10        25     9        0.000000        0.002568         1
        22         9        10        25     9      180.000000       -0.003486         2
        22         9        10        25     9        0.000000        0.656445         3
        22         9        10        25     9      180.000000       -0.001110         4

[ pairs ]
;       ai        aj funct
         1         4     1
         2         5     1
         2         8     1
         3         6     1
         3         9     1
         3        11     1
         3        12     1
         3        13     1
         4         7     1
         4        10     1
         4        14     1
         4        15     1
         4        16     1
         4        17     1
         4        21     1
         4        22     1
         5         9     1
         5        18     1
         5        19     1
         5        20     1
         6         8     1
         8        23     1
         8        24     1
         8        25     1
        11        14     1
        11        15     1
        12        14     1
        12        15     1
        13        14     1
        13        15     1
        16        18     1
        16        19     1
        16        20     1
        17        18     1
        17        19     1
        17        20     1
        21        23     1
        21        24     1
        21        25     1
        22        23     1
        22        24     1
        22        25     1
