A Gromacs structure file written by ASE 
   25
    1TEB      C    1   0.340  -0.019  -0.037  0.0000  0.0000  0.0000
    1TEB      C    2   0.219  -0.107  -0.038  0.0000  0.0000  0.0000
    1TEB      O    3   0.110  -0.051  -0.103  0.0000  0.0000  0.0000
    1TEB      B    4   0.021   0.010  -0.003  0.0000  0.0000  0.0000
    1TEB      O    5  -0.047  -0.074   0.095  0.0000  0.0000  0.0000
    1TEB      C    6  -0.133  -0.156   0.024  0.0000  0.0000  0.0000
    1TEB      C    7  -0.195  -0.265   0.106  0.0000  0.0000  0.0000
    1TEB      O    8   0.013   0.155  -0.002  0.0000  0.0000  0.0000
    1TEB      C    9  -0.099   0.206  -0.065  0.0000  0.0000  0.0000
    1TEB      C   10  -0.140   0.331   0.012  0.0000  0.0000  0.0000
    1TEB      H   11   0.401  -0.046   0.052  0.0000  0.0000  0.0000
    1TEB      H   12   0.318   0.089  -0.027  0.0000  0.0000  0.0000
    1TEB      H   13   0.404  -0.033  -0.127  0.0000  0.0000  0.0000
    1TEB      H   14   0.192  -0.130   0.066  0.0000  0.0000  0.0000
    1TEB      H   15   0.246  -0.199  -0.096  0.0000  0.0000  0.0000
    1TEB      H   16  -0.216  -0.095  -0.019  0.0000  0.0000  0.0000
    1TEB      H   17  -0.076  -0.194  -0.064  0.0000  0.0000  0.0000
    1TEB      H   18  -0.213  -0.352   0.038  0.0000  0.0000  0.0000
    1TEB      H   19  -0.297  -0.234   0.141  0.0000  0.0000  0.0000
    1TEB      H   20  -0.134  -0.298   0.191  0.0000  0.0000  0.0000
    1TEB      H   21  -0.081   0.230  -0.173  0.0000  0.0000  0.0000
    1TEB      H   22  -0.186   0.139  -0.065  0.0000  0.0000  0.0000
    1TEB      H   23  -0.244   0.324   0.050  0.0000  0.0000  0.0000
    1TEB      H   24  -0.128   0.418  -0.056  0.0000  0.0000  0.0000
    1TEB      H   25  -0.075   0.349   0.099  0.0000  0.0000  0.0000

