A Gromacs structure file written by ASE 
    9
    1DFOB     F    1   0.229  -0.012  -0.090  0.0000  0.0000  0.0000
    1DFOB     B    2   0.122  -0.006   0.010  0.0000  0.0000  0.0000
    1DFOB     F    3   0.174   0.010   0.144  0.0000  0.0000  0.0000
    1DFOB     O    4   0.039   0.114  -0.021  0.0000  0.0000  0.0000
    1DFOB     C    5  -0.093   0.073  -0.016  0.0000  0.0000  0.0000
    1DFOB     O    6  -0.191   0.150  -0.020  0.0000  0.0000  0.0000
    1DFOB     C    7  -0.102  -0.072  -0.005  0.0000  0.0000  0.0000
    1DFOB     O    8  -0.209  -0.139   0.001  0.0000  0.0000  0.0000
    1DFOB     O    9   0.030  -0.118  -0.004  0.0000  0.0000  0.0000

