; ITP file created by ByteFF-ML, 2026-04-09 23:00:36.442517

[ moleculetype ]
;name             nrexcl
 DFOB                  3

[ atoms ]
;       nr            type      resi   res      atom      cgnr      charge          mass ; qtot
         1            f0bf         1   UNL        f0         1    -0.55579       18.9980 ; qtot   -0.556
         2            b1bf         1   UNL        b1         2     1.26141       10.8120 ; qtot    0.706
         3            f2bf         1   UNL        f2         3    -0.55579       18.9980 ; qtot    0.150
         4            o3bf         1   UNL        o3         4    -0.53979       15.9990 ; qtot   -0.390
         5            c4bf         1   UNL        c4         5     0.43791       12.0110 ; qtot    0.048
         6            o5bf         1   UNL        o5         6    -0.47303       15.9990 ; qtot   -0.425
         7            c6bf         1   UNL        c6         7     0.43791       12.0110 ; qtot    0.013
         8            o7bf         1   UNL        o7         8    -0.47303       15.9990 ; qtot   -0.460
         9            o8bf         1   UNL        o8         9    -0.53980       15.9990 ; qtot   -1.000

[ bonds ]
;       ai        aj funct               r               k
         1         2     1        0.139300   241512.845068
         2         3     1        0.139300   241512.819531
         2         4     1        0.152368    84595.326611
         2         9     1        0.152368    84595.262769
         4         5     1        0.133770   267447.414014
         5         6     1        0.121342   691626.742773
         5         7     1        0.155581   104866.901099
         7         8     1        0.121342   691626.742773
         7         9     1        0.133770   267447.414014

[ angles ]
;       ai        aj        ak funct           theta             cth
         1         2         3     1      111.657127      484.617469
         1         2         4     1      108.684296      481.569009
         1         2         9     1      108.684296      481.569232
         2         4         5     1      111.379166      544.291884
         2         9         7     1      111.379166      544.291693
         3         2         4     1      108.684296      481.569232
         3         2         9     1      108.684296      481.569168
         4         2         9     1      105.032913      244.982853
         4         5         6     1      126.402374      766.565863
         4         5         7     1      107.371803      294.783025
         5         7         8     1      125.704811      287.123967
         5         7         9     1      107.371803      294.783313
         6         5         7     1      125.704811      287.123999
         8         7         9     1      126.402374      766.565927

[ dihedrals ] ; propers for gromacs 4.5 or higher, use funct 9
;       ai        aj        ak        al funct           phase               k        pn
         1         2         4         5     9        0.000000       -0.020117         1
         1         2         4         5     9      180.000000        4.303856         2
         1         2         4         5     9        0.000000        0.086749         3
         1         2         4         5     9      180.000000        0.008142         4
         1         2         9         7     9        0.000000       -0.020118         1
         1         2         9         7     9      180.000000        4.303856         2
         1         2         9         7     9        0.000000        0.086749         3
         1         2         9         7     9      180.000000        0.008142         4
         2         4         5         6     9        0.000000       -0.244266         1
         2         4         5         6     9      180.000000       11.658304         2
         2         4         5         6     9        0.000000       -0.041563         3
         2         4         5         6     9      180.000000       -0.022672         4
         2         4         5         7     9        0.000000        0.010583         1
         2         4         5         7     9      180.000000       11.466767         2
         2         4         5         7     9        0.000000        0.032121         3
         2         4         5         7     9      180.000000       -0.007248         4
         2         9         7         5     9        0.000000        0.010581         1
         2         9         7         5     9      180.000000       11.466767         2
         2         9         7         5     9        0.000000        0.032121         3
         2         9         7         5     9      180.000000       -0.007248         4
         2         9         7         8     9        0.000000       -0.244265         1
         2         9         7         8     9      180.000000       11.658305         2
         2         9         7         8     9        0.000000       -0.041564         3
         2         9         7         8     9      180.000000       -0.022672         4
         3         2         4         5     9        0.000000       -0.020117         1
         3         2         4         5     9      180.000000        4.303856         2
         3         2         4         5     9        0.000000        0.086748         3
         3         2         4         5     9      180.000000        0.008142         4
         3         2         9         7     9        0.000000       -0.020116         1
         3         2         9         7     9      180.000000        4.303859         2
         3         2         9         7     9        0.000000        0.086750         3
         3         2         9         7     9      180.000000        0.008142         4
         4         2         9         7     9        0.000000        0.070526         1
         4         2         9         7     9      180.000000        4.844924         2
         4         2         9         7     9        0.000000       -0.041124         3
         4         2         9         7     9      180.000000        0.005392         4
         4         5         7         8     9        0.000000        0.008641         1
         4         5         7         8     9      180.000000        2.328497         2
         4         5         7         8     9        0.000000        0.092857         3
         4         5         7         8     9      180.000000       -0.000990         4
         4         5         7         9     9        0.000000       -0.018714         1
         4         5         7         9     9      180.000000        2.135620         2
         4         5         7         9     9        0.000000       -0.073423         3
         4         5         7         9     9      180.000000       -0.003263         4
         5         4         2         9     9        0.000000        0.070526         1
         5         4         2         9     9      180.000000        4.844922         2
         5         4         2         9     9        0.000000       -0.041123         3
         5         4         2         9     9      180.000000        0.005392         4
         6         5         7         8     9        0.000000        0.311658         1
         6         5         7         8     9      180.000000        1.709467         2
         6         5         7         8     9        0.000000        0.056376         3
         6         5         7         8     9      180.000000        0.007055         4
         6         5         7         9     9        0.000000        0.008642         1
         6         5         7         9     9      180.000000        2.328494         2
         6         5         7         9     9        0.000000        0.092856         3
         6         5         7         9     9      180.000000       -0.000991         4

[ dihedrals ] ; impropers
;       ai        aj        ak        al funct           phase               k        pn
         5         4         6         7     4      180.000000       27.893333         2
         5         6         7         4     4      180.000000       27.893333         2
         5         7         4         6     4      180.000000       27.893333         2
         7         5         8         9     4      180.000000       27.893333         2
         7         8         9         5     4      180.000000       27.893333         2
         7         9         5         8     4      180.000000       27.893333         2

[ pairs ]
;       ai        aj funct
         1         5     1
         1         7     1
         2         6     1
         2         8     1
         3         5     1
         3         7     1
         4         8     1
         6         8     1
         6         9     1
