A Gromacs structure file written by ASE 
   16
    1TMB      C    1  -0.103  -0.204   0.023  0.0000  0.0000  0.0000
    1TMB      O    2  -0.129  -0.066   0.026  0.0000  0.0000  0.0000
    1TMB      B    3  -0.002   0.005   0.018  0.0000  0.0000  0.0000
    1TMB      O    4  -0.000   0.151   0.002  0.0000  0.0000  0.0000
    1TMB      C    5  -0.132   0.199   0.005  0.0000  0.0000  0.0000
    1TMB      O    6   0.108  -0.063  -0.054  0.0000  0.0000  0.0000
    1TMB      C    7   0.228  -0.000  -0.030  0.0000  0.0000  0.0000
    1TMB      H    8  -0.023  -0.219   0.101  0.0000  0.0000  0.0000
    1TMB      H    9  -0.054  -0.220  -0.077  0.0000  0.0000  0.0000
    1TMB      H   10  -0.192  -0.265   0.038  0.0000  0.0000  0.0000
    1TMB      H   11  -0.147   0.258  -0.087  0.0000  0.0000  0.0000
    1TMB      H   12  -0.204   0.115   0.012  0.0000  0.0000  0.0000
    1TMB      H   13  -0.141   0.261   0.098  0.0000  0.0000  0.0000
    1TMB      H   14   0.247   0.020   0.077  0.0000  0.0000  0.0000
    1TMB      H   15   0.307  -0.068  -0.068  0.0000  0.0000  0.0000
    1TMB      H   16   0.239   0.096  -0.084  0.0000  0.0000  0.0000

