; ITP file created by ByteFF-ML, 2026-04-09 23:00:42.628702

[ moleculetype ]
;name             nrexcl
 TMB                   3

[ atoms ]
;       nr            type      resi   res      atom      cgnr      charge          mass ; qtot
         1            c0bf         1   UNL        c0         1     0.17298       12.0110 ; qtot    0.173
         2            o1bf         1   UNL        o1         2    -0.59861       15.9990 ; qtot   -0.426
         3            b2bf         1   UNL        b2         3     1.05706       10.8120 ; qtot    0.631
         4            o3bf         1   UNL        o3         4    -0.59861       15.9990 ; qtot    0.033
         5            c4bf         1   UNL        c4         5     0.17298       12.0110 ; qtot    0.206
         6            o5bf         1   UNL        o5         6    -0.59861       15.9990 ; qtot   -0.393
         7            c6bf         1   UNL        c6         7     0.17298       12.0110 ; qtot   -0.220
         8            h7bf         1   UNL        h7         8     0.02443        1.0080 ; qtot   -0.195
         9            h8bf         1   UNL        h8         9     0.02443        1.0080 ; qtot   -0.171
        10            h9bf         1   UNL        h9        10     0.02443        1.0080 ; qtot   -0.147
        11           h10bf         1   UNL       h10        11     0.02443        1.0080 ; qtot   -0.122
        12           h11bf         1   UNL       h11        12     0.02443        1.0080 ; qtot   -0.098
        13           h12bf         1   UNL       h12        13     0.02443        1.0080 ; qtot   -0.073
        14           h13bf         1   UNL       h13        14     0.02443        1.0080 ; qtot   -0.049
        15           h14bf         1   UNL       h14        15     0.02443        1.0080 ; qtot   -0.024
        16           h15bf         1   UNL       h15        16     0.02439        1.0080 ; qtot    0.000

[ bonds ]
;       ai        aj funct               r               k
         1         2     1        0.143037   207802.481689
         1         8     1        0.109398   302021.314746
         1         9     1        0.109398   302021.416895
         1        10     1        0.109398   302021.391357
         2         3     1        0.137091   299439.334229
         3         4     1        0.137091   299439.308691
         3         6     1        0.137091   299439.334229
         4         5     1        0.143037   207802.481689
         5        11     1        0.109398   302021.416895
         5        12     1        0.109398   302021.391357
         5        13     1        0.109398   302021.365820
         6         7     1        0.143037   207802.481689
         7        14     1        0.109398   302021.391357
         7        15     1        0.109398   302021.365820
         7        16     1        0.109398   302021.391357

[ angles ]
;       ai        aj        ak funct           theta             cth
         1         2         3     1      122.292198      317.127294
         2         1         8     1      109.730629      445.642478
         2         1         9     1      109.730629      445.642478
         2         1        10     1      109.730629      445.642478
         2         3         4     1      119.762672      319.671109
         2         3         6     1      119.762672      319.671109
         3         4         5     1      122.292198      317.127294
         3         6         7     1      122.292198      317.127294
         4         3         6     1      119.762665      319.671013
         4         5        11     1      109.730629      445.642478
         4         5        12     1      109.730629      445.642478
         4         5        13     1      109.730629      445.642478
         6         7        14     1      109.730629      445.642509
         6         7        15     1      109.730629      445.642509
         6         7        16     1      109.730629      445.642509
         8         1         9     1      109.209236      346.717111
         8         1        10     1      109.209236      346.717047
         9         1        10     1      109.209236      346.717111
        11         5        12     1      109.209236      346.717111
        11         5        13     1      109.209236      346.717111
        12         5        13     1      109.209236      346.717047
        14         7        15     1      109.209236      346.717111
        14         7        16     1      109.209236      346.717111
        15         7        16     1      109.209236      346.717111

[ dihedrals ] ; propers for gromacs 4.5 or higher, use funct 9
;       ai        aj        ak        al funct           phase               k        pn
         1         2         3         4     9        0.000000        0.010695         1
         1         2         3         4     9      180.000000        4.390626         2
         1         2         3         4     9        0.000000        0.055430         3
         1         2         3         4     9      180.000000       -0.004643         4
         1         2         3         6     9        0.000000        0.010695         1
         1         2         3         6     9      180.000000        4.390626         2
         1         2         3         6     9        0.000000        0.055430         3
         1         2         3         6     9      180.000000       -0.004643         4
         2         3         4         5     9        0.000000        0.010696         1
         2         3         4         5     9      180.000000        4.390628         2
         2         3         4         5     9        0.000000        0.055431         3
         2         3         4         5     9      180.000000       -0.004644         4
         2         3         6         7     9        0.000000        0.010695         1
         2         3         6         7     9      180.000000        4.390626         2
         2         3         6         7     9        0.000000        0.055430         3
         2         3         6         7     9      180.000000       -0.004643         4
         3         2         1         8     9        0.000000       -0.003890         1
         3         2         1         8     9      180.000000        0.000007         2
         3         2         1         8     9        0.000000        1.533344         3
         3         2         1         8     9      180.000000       -0.004749         4
         3         2         1         9     9        0.000000       -0.003889         1
         3         2         1         9     9      180.000000        0.000010         2
         3         2         1         9     9        0.000000        1.533348         3
         3         2         1         9     9      180.000000       -0.004749         4
         3         2         1        10     9        0.000000       -0.003889         1
         3         2         1        10     9      180.000000        0.000008         2
         3         2         1        10     9        0.000000        1.533348         3
         3         2         1        10     9      180.000000       -0.004748         4
         3         4         5        11     9        0.000000       -0.003889         1
         3         4         5        11     9      180.000000        0.000008         2
         3         4         5        11     9        0.000000        1.533348         3
         3         4         5        11     9      180.000000       -0.004748         4
         3         4         5        12     9        0.000000       -0.003889         1
         3         4         5        12     9      180.000000        0.000010         2
         3         4         5        12     9        0.000000        1.533348         3
         3         4         5        12     9      180.000000       -0.004749         4
         3         4         5        13     9        0.000000       -0.003889         1
         3         4         5        13     9      180.000000        0.000007         2
         3         4         5        13     9        0.000000        1.533347         3
         3         4         5        13     9      180.000000       -0.004749         4
         3         6         7        14     9        0.000000       -0.003889         1
         3         6         7        14     9      180.000000        0.000007         2
         3         6         7        14     9        0.000000        1.533347         3
         3         6         7        14     9      180.000000       -0.004749         4
         3         6         7        15     9        0.000000       -0.003890         1
         3         6         7        15     9      180.000000        0.000007         2
         3         6         7        15     9        0.000000        1.533349         3
         3         6         7        15     9      180.000000       -0.004748         4
         3         6         7        16     9        0.000000       -0.003889         1
         3         6         7        16     9      180.000000        0.000007         2
         3         6         7        16     9        0.000000        1.533347         3
         3         6         7        16     9      180.000000       -0.004749         4
         4         3         6         7     9        0.000000        0.010695         1
         4         3         6         7     9      180.000000        4.390626         2
         4         3         6         7     9        0.000000        0.055430         3
         4         3         6         7     9      180.000000       -0.004643         4
         5         4         3         6     9        0.000000        0.010696         1
         5         4         3         6     9      180.000000        4.390628         2
         5         4         3         6     9        0.000000        0.055431         3
         5         4         3         6     9      180.000000       -0.004644         4

[ pairs ]
;       ai        aj funct
         1         4     1
         1         6     1
         2         5     1
         2         7     1
         3         8     1
         3         9     1
         3        10     1
         3        11     1
         3        12     1
         3        13     1
         3        14     1
         3        15     1
         3        16     1
         4         7     1
         5         6     1
