A Gromacs structure file written by ASE 
   21
    1TMOS     C    1  -0.169   0.173  -0.107  0.0000  0.0000  0.0000
    1TMOS     O    2  -0.060   0.085  -0.129  0.0000  0.0000  0.0000
    1TMOS    Si    3  -0.000   0.000  -0.000  0.0000  0.0000  0.0000
    1TMOS     O    4   0.137  -0.082  -0.046  0.0000  0.0000  0.0000
    1TMOS     C    5   0.242  -0.008  -0.107  0.0000  0.0000  0.0000
    1TMOS     O    6   0.037   0.105   0.123  0.0000  0.0000  0.0000
    1TMOS     C    7   0.076   0.050   0.248  0.0000  0.0000  0.0000
    1TMOS     O    8  -0.114  -0.108   0.052  0.0000  0.0000  0.0000
    1TMOS     C    9  -0.149  -0.216  -0.034  0.0000  0.0000  0.0000
    1TMOS     H   10  -0.196   0.218  -0.203  0.0000  0.0000  0.0000
    1TMOS     H   11  -0.256   0.119  -0.069  0.0000  0.0000  0.0000
    1TMOS     H   12  -0.141   0.254  -0.039  0.0000  0.0000  0.0000
    1TMOS     H   13   0.324  -0.077  -0.128  0.0000  0.0000  0.0000
    1TMOS     H   14   0.280   0.071  -0.040  0.0000  0.0000  0.0000
    1TMOS     H   15   0.210   0.036  -0.202  0.0000  0.0000  0.0000
    1TMOS     H   16  -0.005  -0.008   0.293  0.0000  0.0000  0.0000
    1TMOS     H   17   0.099   0.133   0.316  0.0000  0.0000  0.0000
    1TMOS     H   18   0.167  -0.011   0.239  0.0000  0.0000  0.0000
    1TMOS     H   19  -0.063  -0.282  -0.052  0.0000  0.0000  0.0000
    1TMOS     H   20  -0.227  -0.275   0.015  0.0000  0.0000  0.0000
    1TMOS     H   21  -0.190  -0.179  -0.129  0.0000  0.0000  0.0000

