; ITP file created by ByteFF-ML, 2026-04-09 23:00:38.495978

[ moleculetype ]
;name             nrexcl
 TMOS                  3

[ atoms ]
;       nr            type      resi   res      atom      cgnr      charge          mass ; qtot
         1            c0bf         1   UNL        c0         1     0.22453       12.0110 ; qtot    0.225
         2            o1bf         1   UNL        o1         2    -0.58270       15.9990 ; qtot   -0.358
         3           si2bf         1   UNL       si2         3     1.32363       28.0860 ; qtot    0.965
         4            o3bf         1   UNL        o3         4    -0.58270       15.9990 ; qtot    0.383
         5            c4bf         1   UNL        c4         5     0.22453       12.0110 ; qtot    0.607
         6            o5bf         1   UNL        o5         6    -0.58270       15.9990 ; qtot    0.025
         7            c6bf         1   UNL        c6         7     0.22453       12.0110 ; qtot    0.249
         8            o7bf         1   UNL        o7         8    -0.58270       15.9990 ; qtot   -0.334
         9            c8bf         1   UNL        c8         9     0.22453       12.0110 ; qtot   -0.109
        10            h9bf         1   UNL        h9        10     0.00909        1.0080 ; qtot   -0.100
        11           h10bf         1   UNL       h10        11     0.00909        1.0080 ; qtot   -0.091
        12           h11bf         1   UNL       h11        12     0.00909        1.0080 ; qtot   -0.082
        13           h12bf         1   UNL       h12        13     0.00909        1.0080 ; qtot   -0.073
        14           h13bf         1   UNL       h13        14     0.00909        1.0080 ; qtot   -0.064
        15           h14bf         1   UNL       h14        15     0.00909        1.0080 ; qtot   -0.055
        16           h15bf         1   UNL       h15        16     0.00909        1.0080 ; qtot   -0.045
        17           h16bf         1   UNL       h16        17     0.00909        1.0080 ; qtot   -0.036
        18           h17bf         1   UNL       h17        18     0.00909        1.0080 ; qtot   -0.027
        19           h18bf         1   UNL       h18        19     0.00909        1.0080 ; qtot   -0.018
        20           h19bf         1   UNL       h19        20     0.00909        1.0080 ; qtot   -0.009
        21           h20bf         1   UNL       h20        21     0.00906        1.0080 ; qtot    0.000

[ bonds ]
;       ai        aj funct               r               k
         1         2     1        0.143089   210122.132251
         1        10     1        0.109512   297623.518066
         1        11     1        0.109512   297623.518066
         1        12     1        0.109512   297623.466992
         2         3     1        0.164028   246885.291064
         3         4     1        0.164028   246885.291064
         3         6     1        0.164028   246885.291064
         3         8     1        0.164028   246885.291064
         4         5     1        0.143089   210122.132251
         5        13     1        0.109512   297623.466992
         5        14     1        0.109512   297623.466992
         5        15     1        0.109512   297623.466992
         6         7     1        0.143089   210122.145020
         7        16     1        0.109512   297623.466992
         7        17     1        0.109512   297623.466992
         7        18     1        0.109512   297623.492529
         8         9     1        0.143089   210122.106714
         9        19     1        0.109512   297623.492529
         9        20     1        0.109512   297623.492529
         9        21     1        0.109512   297623.492529

[ angles ]
;       ai        aj        ak funct           theta             cth
         1         2         3     1      123.500778      229.728197
         2         1        10     1      110.047325      431.227577
         2         1        11     1      110.047325      431.227577
         2         1        12     1      110.047325      431.227545
         2         3         4     1      109.476944      362.605087
         2         3         6     1      109.476944      362.605087
         2         3         8     1      109.476944      362.605087
         3         4         5     1      123.500778      229.728197
         3         6         7     1      123.500778      229.728197
         3         8         9     1      123.500778      229.728197
         4         3         6     1      109.476944      362.605087
         4         3         8     1      109.476944      362.605087
         4         5        13     1      110.047333      431.227673
         4         5        14     1      110.047333      431.227673
         4         5        15     1      110.047333      431.227673
         6         3         8     1      109.476952      362.605055
         6         7        16     1      110.047333      431.227673
         6         7        17     1      110.047325      431.227609
         6         7        18     1      110.047325      431.227577
         8         9        19     1      110.047325      431.227577
         8         9        20     1      110.047325      431.227577
         8         9        21     1      110.047325      431.227577
        10         1        11     1      109.014709      347.640884
        10         1        12     1      109.014709      347.640820
        11         1        12     1      109.014709      347.640884
        13         5        14     1      109.014709      347.640820
        13         5        15     1      109.014709      347.640820
        14         5        15     1      109.014709      347.640820
        16         7        17     1      109.014717      347.640884
        16         7        18     1      109.014709      347.640884
        17         7        18     1      109.014709      347.640820
        19         9        20     1      109.014709      347.640820
        19         9        21     1      109.014709      347.640788
        20         9        21     1      109.014709      347.640820

[ dihedrals ] ; propers for gromacs 4.5 or higher, use funct 9
;       ai        aj        ak        al funct           phase               k        pn
         1         2         3         4     9        0.000000       -2.103967         1
         1         2         3         4     9      180.000000       -3.624422         2
         1         2         3         4     9        0.000000        3.680557         3
         1         2         3         4     9      180.000000        0.023026         4
         1         2         3         6     9        0.000000       -2.103967         1
         1         2         3         6     9      180.000000       -3.624422         2
         1         2         3         6     9        0.000000        3.680557         3
         1         2         3         6     9      180.000000        0.023026         4
         1         2         3         8     9        0.000000       -2.103967         1
         1         2         3         8     9      180.000000       -3.624422         2
         1         2         3         8     9        0.000000        3.680557         3
         1         2         3         8     9      180.000000        0.023026         4
         2         3         4         5     9        0.000000       -2.103967         1
         2         3         4         5     9      180.000000       -3.624422         2
         2         3         4         5     9        0.000000        3.680557         3
         2         3         4         5     9      180.000000        0.023026         4
         2         3         6         7     9        0.000000       -2.103967         1
         2         3         6         7     9      180.000000       -3.624422         2
         2         3         6         7     9        0.000000        3.680557         3
         2         3         6         7     9      180.000000        0.023026         4
         2         3         8         9     9        0.000000       -2.103967         1
         2         3         8         9     9      180.000000       -3.624422         2
         2         3         8         9     9        0.000000        3.680557         3
         2         3         8         9     9      180.000000        0.023026         4
         3         2         1        10     9        0.000000        0.032951         1
         3         2         1        10     9      180.000000       -0.014820         2
         3         2         1        10     9        0.000000        1.521567         3
         3         2         1        10     9      180.000000       -0.002866         4
         3         2         1        11     9        0.000000        0.032951         1
         3         2         1        11     9      180.000000       -0.014820         2
         3         2         1        11     9        0.000000        1.521567         3
         3         2         1        11     9      180.000000       -0.002866         4
         3         2         1        12     9        0.000000        0.032949         1
         3         2         1        12     9      180.000000       -0.014821         2
         3         2         1        12     9        0.000000        1.521572         3
         3         2         1        12     9      180.000000       -0.002866         4
         3         4         5        13     9        0.000000        0.032949         1
         3         4         5        13     9      180.000000       -0.014821         2
         3         4         5        13     9        0.000000        1.521572         3
         3         4         5        13     9      180.000000       -0.002866         4
         3         4         5        14     9        0.000000        0.032949         1
         3         4         5        14     9      180.000000       -0.014821         2
         3         4         5        14     9        0.000000        1.521572         3
         3         4         5        14     9      180.000000       -0.002866         4
         3         4         5        15     9        0.000000        0.032949         1
         3         4         5        15     9      180.000000       -0.014821         2
         3         4         5        15     9        0.000000        1.521572         3
         3         4         5        15     9      180.000000       -0.002866         4
         3         6         7        16     9        0.000000        0.032950         1
         3         6         7        16     9      180.000000       -0.014818         2
         3         6         7        16     9        0.000000        1.521569         3
         3         6         7        16     9      180.000000       -0.002866         4
         3         6         7        17     9        0.000000        0.032951         1
         3         6         7        17     9      180.000000       -0.014819         2
         3         6         7        17     9        0.000000        1.521568         3
         3         6         7        17     9      180.000000       -0.002866         4
         3         6         7        18     9        0.000000        0.032951         1
         3         6         7        18     9      180.000000       -0.014819         2
         3         6         7        18     9        0.000000        1.521568         3
         3         6         7        18     9      180.000000       -0.002866         4
         3         8         9        19     9        0.000000        0.032951         1
         3         8         9        19     9      180.000000       -0.014819         2
         3         8         9        19     9        0.000000        1.521568         3
         3         8         9        19     9      180.000000       -0.002866         4
         3         8         9        20     9        0.000000        0.032952         1
         3         8         9        20     9      180.000000       -0.014820         2
         3         8         9        20     9        0.000000        1.521567         3
         3         8         9        20     9      180.000000       -0.002866         4
         3         8         9        21     9        0.000000        0.032952         1
         3         8         9        21     9      180.000000       -0.014820         2
         3         8         9        21     9        0.000000        1.521567         3
         3         8         9        21     9      180.000000       -0.002866         4
         4         3         6         7     9        0.000000       -2.103954         1
         4         3         6         7     9      180.000000       -3.624413         2
         4         3         6         7     9        0.000000        3.680557         3
         4         3         6         7     9      180.000000        0.023024         4
         4         3         8         9     9        0.000000       -2.103954         1
         4         3         8         9     9      180.000000       -3.624413         2
         4         3         8         9     9        0.000000        3.680557         3
         4         3         8         9     9      180.000000        0.023024         4
         5         4         3         6     9        0.000000       -2.103969         1
         5         4         3         6     9      180.000000       -3.624423         2
         5         4         3         6     9        0.000000        3.680554         3
         5         4         3         6     9      180.000000        0.023026         4
         5         4         3         8     9        0.000000       -2.103969         1
         5         4         3         8     9      180.000000       -3.624423         2
         5         4         3         8     9        0.000000        3.680554         3
         5         4         3         8     9      180.000000        0.023026         4
         6         3         8         9     9        0.000000       -2.103969         1
         6         3         8         9     9      180.000000       -3.624423         2
         6         3         8         9     9        0.000000        3.680554         3
         6         3         8         9     9      180.000000        0.023026         4
         7         6         3         8     9        0.000000       -2.103969         1
         7         6         3         8     9      180.000000       -3.624423         2
         7         6         3         8     9        0.000000        3.680554         3
         7         6         3         8     9      180.000000        0.023026         4

[ pairs ]
;       ai        aj funct
         1         4     1
         1         6     1
         1         8     1
         2         5     1
         2         7     1
         2         9     1
         3        10     1
         3        11     1
         3        12     1
         3        13     1
         3        14     1
         3        15     1
         3        16     1
         3        17     1
         3        18     1
         3        19     1
         3        20     1
         3        21     1
         4         7     1
         4         9     1
         5         6     1
         5         8     1
         6         9     1
         7         8     1
