; ITP file created by ByteFF-ML, 2026-04-09 23:00:59.231030

[ moleculetype ]
;name             nrexcl
 TMOBX                 3

[ atoms ]
;       nr            type      resi   res      atom      cgnr      charge          mass ; qtot
         1            c0bf         1   UNL        c0         1     0.17471       12.0110 ; qtot    0.175
         2            o1bf         1   UNL        o1         2    -0.51461       15.9990 ; qtot   -0.340
         3            b2bf         1   UNL        b2         3     0.95632       10.8120 ; qtot    0.616
         4            o3bf         1   UNL        o3         4    -0.68309       15.9990 ; qtot   -0.067
         5            b4bf         1   UNL        b4         5     0.95632       10.8120 ; qtot    0.890
         6            o5bf         1   UNL        o5         6    -0.51461       15.9990 ; qtot    0.375
         7            c6bf         1   UNL        c6         7     0.17471       12.0110 ; qtot    0.550
         8            o7bf         1   UNL        o7         8    -0.68309       15.9990 ; qtot   -0.133
         9            b8bf         1   UNL        b8         9     0.95632       10.8120 ; qtot    0.823
        10            o9bf         1   UNL        o9        10    -0.51461       15.9990 ; qtot    0.308
        11           c10bf         1   UNL       c10        11     0.17472       12.0110 ; qtot    0.483
        12           o11bf         1   UNL       o11        12    -0.68309       15.9990 ; qtot   -0.200
        13           h12bf         1   UNL       h12        13     0.02222        1.0080 ; qtot   -0.178
        14           h13bf         1   UNL       h13        14     0.02222        1.0080 ; qtot   -0.156
        15           h14bf         1   UNL       h14        15     0.02222        1.0080 ; qtot   -0.133
        16           h15bf         1   UNL       h15        16     0.02222        1.0080 ; qtot   -0.111
        17           h16bf         1   UNL       h16        17     0.02222        1.0080 ; qtot   -0.089
        18           h17bf         1   UNL       h17        18     0.02222        1.0080 ; qtot   -0.067
        19           h18bf         1   UNL       h18        19     0.02222        1.0080 ; qtot   -0.044
        20           h19bf         1   UNL       h19        20     0.02222        1.0080 ; qtot   -0.022
        21           h20bf         1   UNL       h20        21     0.02224        1.0080 ; qtot   -0.000

[ bonds ]
;       ai        aj funct               r               k
         1         2     1        0.142932   207687.577466
         1        13     1        0.109517   298265.597607
         1        14     1        0.109517   298265.597607
         1        15     1        0.109517   298265.597607
         2         3     1        0.134898   330941.937891
         3         4     1        0.139016   249598.966455
         3        12     1        0.139016   249598.966455
         4         5     1        0.139016   249598.966455
         5         6     1        0.134898   330941.937891
         5         8     1        0.139016   249598.966455
         6         7     1        0.142932   207687.577466
         7        16     1        0.109517   298265.674219
         7        17     1        0.109517   298265.623145
         7        18     1        0.109517   298265.623145
         8         9     1        0.139016   249598.991992
         9        10     1        0.134898   330941.937891
         9        12     1        0.139016   249598.966455
        10        11     1        0.142932   207687.526392
        11        19     1        0.109517   298265.648682
        11        20     1        0.109517   298265.648682
        11        21     1        0.109517   298265.648682

[ angles ]
;       ai        aj        ak funct           theta             cth
         1         2         3     1      121.577103      351.403521
         2         1        13     1      109.613976      430.766377
         2         1        14     1      109.613976      430.766377
         2         1        15     1      109.613976      430.766377
         2         3         4     1      119.209274      424.138252
         2         3        12     1      119.209267      424.138252
         3         4         5     1      118.759201      543.594466
         3        12         9     1      118.759201      543.594593
         4         3        12     1      120.500000      435.342021
         4         5         6     1      119.209274      424.138252
         4         5         8     1      120.500000      435.342021
         5         6         7     1      121.577103      351.403521
         5         8         9     1      118.759201      543.594530
         6         5         8     1      119.209274      424.138252
         6         7        16     1      109.613968      430.766409
         6         7        17     1      109.613976      430.766441
         6         7        18     1      109.613976      430.766441
         8         9        10     1      119.209274      424.138252
         8         9        12     1      120.500000      435.342148
         9        10        11     1      121.577103      351.403457
        10         9        12     1      119.209267      424.138252
        10        11        19     1      109.613976      430.766409
        10        11        20     1      109.613976      430.766409
        10        11        21     1      109.613976      430.766441
        13         1        14     1      109.101158      345.653235
        13         1        15     1      109.101158      345.653235
        14         1        15     1      109.101158      345.653235
        16         7        17     1      109.101158      345.653107
        16         7        18     1      109.101158      345.653139
        17         7        18     1      109.101158      345.653139
        19        11        20     1      109.101158      345.653139
        19        11        21     1      109.101158      345.653139
        20        11        21     1      109.101158      345.653107

[ dihedrals ] ; propers for gromacs 4.5 or higher, use funct 9
;       ai        aj        ak        al funct           phase               k        pn
         1         2         3         4     9        0.000000        0.006085         1
         1         2         3         4     9      180.000000        4.094870         2
         1         2         3         4     9        0.000000        0.080538         3
         1         2         3         4     9      180.000000       -0.008093         4
         1         2         3        12     9        0.000000        0.006085         1
         1         2         3        12     9      180.000000        4.094871         2
         1         2         3        12     9        0.000000        0.080540         3
         1         2         3        12     9      180.000000       -0.008093         4
         2         3         4         5     9        0.000000       -0.023222         1
         2         3         4         5     9      180.000000        3.802794         2
         2         3         4         5     9        0.000000       -0.144405         3
         2         3         4         5     9      180.000000        0.008788         4
         2         3        12         9     9        0.000000       -0.023220         1
         2         3        12         9     9      180.000000        3.802795         2
         2         3        12         9     9        0.000000       -0.144405         3
         2         3        12         9     9      180.000000        0.008789         4
         3         2         1        13     9        0.000000       -0.014982         1
         3         2         1        13     9      180.000000        0.001039         2
         3         2         1        13     9        0.000000        1.668669         3
         3         2         1        13     9      180.000000       -0.005651         4
         3         2         1        14     9        0.000000       -0.014982         1
         3         2         1        14     9      180.000000        0.001039         2
         3         2         1        14     9        0.000000        1.668669         3
         3         2         1        14     9      180.000000       -0.005651         4
         3         2         1        15     9        0.000000       -0.014982         1
         3         2         1        15     9      180.000000        0.001039         2
         3         2         1        15     9        0.000000        1.668669         3
         3         2         1        15     9      180.000000       -0.005651         4
         3         4         5         6     9        0.000000       -0.023222         1
         3         4         5         6     9      180.000000        3.802794         2
         3         4         5         6     9        0.000000       -0.144405         3
         3         4         5         6     9      180.000000        0.008788         4
         3         4         5         8     9        0.000000       -0.020487         1
         3         4         5         8     9      180.000000        3.881092         2
         3         4         5         8     9        0.000000       -0.121459         3
         3         4         5         8     9      180.000000        0.006066         4
         3        12         9         8     9        0.000000       -0.020488         1
         3        12         9         8     9      180.000000        3.881088         2
         3        12         9         8     9        0.000000       -0.121459         3
         3        12         9         8     9      180.000000        0.006066         4
         3        12         9        10     9        0.000000       -0.023221         1
         3        12         9        10     9      180.000000        3.802793         2
         3        12         9        10     9        0.000000       -0.144404         3
         3        12         9        10     9      180.000000        0.008788         4
         4         3        12         9     9        0.000000       -0.020487         1
         4         3        12         9     9      180.000000        3.881085         2
         4         3        12         9     9        0.000000       -0.121458         3
         4         3        12         9     9      180.000000        0.006066         4
         4         5         6         7     9        0.000000        0.006085         1
         4         5         6         7     9      180.000000        4.094871         2
         4         5         6         7     9        0.000000        0.080540         3
         4         5         6         7     9      180.000000       -0.008092         4
         4         5         8         9     9        0.000000       -0.020488         1
         4         5         8         9     9      180.000000        3.881089         2
         4         5         8         9     9        0.000000       -0.121458         3
         4         5         8         9     9      180.000000        0.006067         4
         5         4         3        12     9        0.000000       -0.020489         1
         5         4         3        12     9      180.000000        3.881083         2
         5         4         3        12     9        0.000000       -0.121459         3
         5         4         3        12     9      180.000000        0.006067         4
         5         6         7        16     9        0.000000       -0.014982         1
         5         6         7        16     9      180.000000        0.001040         2
         5         6         7        16     9        0.000000        1.668671         3
         5         6         7        16     9      180.000000       -0.005651         4
         5         6         7        17     9        0.000000       -0.014982         1
         5         6         7        17     9      180.000000        0.001039         2
         5         6         7        17     9        0.000000        1.668667         3
         5         6         7        17     9      180.000000       -0.005651         4
         5         6         7        18     9        0.000000       -0.014982         1
         5         6         7        18     9      180.000000        0.001039         2
         5         6         7        18     9        0.000000        1.668667         3
         5         6         7        18     9      180.000000       -0.005651         4
         5         8         9        10     9        0.000000       -0.023220         1
         5         8         9        10     9      180.000000        3.802793         2
         5         8         9        10     9        0.000000       -0.144408         3
         5         8         9        10     9      180.000000        0.008788         4
         5         8         9        12     9        0.000000       -0.020488         1
         5         8         9        12     9      180.000000        3.881091         2
         5         8         9        12     9        0.000000       -0.121460         3
         5         8         9        12     9      180.000000        0.006067         4
         6         5         8         9     9        0.000000       -0.023220         1
         6         5         8         9     9      180.000000        3.802793         2
         6         5         8         9     9        0.000000       -0.144406         3
         6         5         8         9     9      180.000000        0.008787         4
         7         6         5         8     9        0.000000        0.006086         1
         7         6         5         8     9      180.000000        4.094871         2
         7         6         5         8     9        0.000000        0.080538         3
         7         6         5         8     9      180.000000       -0.008093         4
         8         9        10        11     9        0.000000        0.006086         1
         8         9        10        11     9      180.000000        4.094871         2
         8         9        10        11     9        0.000000        0.080538         3
         8         9        10        11     9      180.000000       -0.008093         4
         9        10        11        19     9        0.000000       -0.014983         1
         9        10        11        19     9      180.000000        0.001041         2
         9        10        11        19     9        0.000000        1.668669         3
         9        10        11        19     9      180.000000       -0.005652         4
         9        10        11        20     9        0.000000       -0.014983         1
         9        10        11        20     9      180.000000        0.001041         2
         9        10        11        20     9        0.000000        1.668669         3
         9        10        11        20     9      180.000000       -0.005652         4
         9        10        11        21     9        0.000000       -0.014983         1
         9        10        11        21     9      180.000000        0.001041         2
         9        10        11        21     9        0.000000        1.668669         3
         9        10        11        21     9      180.000000       -0.005652         4
        11        10         9        12     9        0.000000        0.006084         1
        11        10         9        12     9      180.000000        4.094869         2
        11        10         9        12     9        0.000000        0.080538         3
        11        10         9        12     9      180.000000       -0.008093         4

[ pairs ]
;       ai        aj funct
         1         4     1
         1        12     1
         2         5     1
         2         9     1
         3         6     1
         3         8     1
         3        10     1
         3        13     1
         3        14     1
         3        15     1
         4         7     1
         4         9     1
         5        10     1
         5        12     1
         5        16     1
         5        17     1
         5        18     1
         6         9     1
         7         8     1
         8        11     1
         9        19     1
         9        20     1
         9        21     1
        11        12     1
