A Gromacs structure file written by ASE 
   21
    1TMOBX    C    1  -0.155  -0.294  -0.041  0.0000  0.0000  0.0000
    1TMOBX    O    2  -0.075  -0.228   0.049  0.0000  0.0000  0.0000
    1TMOBX    B    3  -0.040  -0.092   0.006  0.0000  0.0000  0.0000
    1TMOBX    O    4  -0.118   0.014   0.067  0.0000  0.0000  0.0000
    1TMOBX    B    5  -0.043   0.140   0.079  0.0000  0.0000  0.0000
    1TMOBX    O    6  -0.122   0.254   0.128  0.0000  0.0000  0.0000
    1TMOBX    C    7  -0.231   0.259   0.039  0.0000  0.0000  0.0000
    1TMOBX    O    8   0.050   0.170  -0.031  0.0000  0.0000  0.0000
    1TMOBX    B    9   0.147   0.060  -0.029  0.0000  0.0000  0.0000
    1TMOBX    O   10   0.281   0.096   0.019  0.0000  0.0000  0.0000
    1TMOBX    C   11   0.364  -0.009  -0.021  0.0000  0.0000  0.0000
    1TMOBX    O   12   0.100  -0.076  -0.034  0.0000  0.0000  0.0000
    1TMOBX    H   13  -0.215  -0.369   0.015  0.0000  0.0000  0.0000
    1TMOBX    H   14  -0.226  -0.231  -0.096  0.0000  0.0000  0.0000
    1TMOBX    H   15  -0.098  -0.354  -0.116  0.0000  0.0000  0.0000
    1TMOBX    H   16  -0.307   0.327   0.079  0.0000  0.0000  0.0000
    1TMOBX    H   17  -0.201   0.286  -0.063  0.0000  0.0000  0.0000
    1TMOBX    H   18  -0.269   0.154   0.036  0.0000  0.0000  0.0000
    1TMOBX    H   19   0.344  -0.095   0.047  0.0000  0.0000  0.0000
    1TMOBX    H   20   0.468   0.029  -0.007  0.0000  0.0000  0.0000
    1TMOBX    H   21   0.344  -0.039  -0.125  0.0000  0.0000  0.0000

