A Gromacs structure file written by ASE 
   33
    1TEOS     C    1   0.119   0.196   0.322  0.0000  0.0000  0.0000
    1TEOS     C    2   0.021   0.119   0.236  0.0000  0.0000  0.0000
    1TEOS     O    3   0.087   0.082   0.115  0.0000  0.0000  0.0000
    1TEOS    Si    4   0.000   0.000  -0.000  0.0000  0.0000  0.0000
    1TEOS     O    5  -0.119   0.099  -0.060  0.0000  0.0000  0.0000
    1TEOS     C    6  -0.081   0.213  -0.134  0.0000  0.0000  0.0000
    1TEOS     C    7  -0.207   0.289  -0.174  0.0000  0.0000  0.0000
    1TEOS     O    8  -0.068  -0.135   0.068  0.0000  0.0000  0.0000
    1TEOS     C    9  -0.158  -0.212  -0.011  0.0000  0.0000  0.0000
    1TEOS     C   10  -0.203  -0.332   0.072  0.0000  0.0000  0.0000
    1TEOS     O   11   0.101  -0.046  -0.123  0.0000  0.0000  0.0000
    1TEOS     C   12   0.218  -0.120  -0.091  0.0000  0.0000  0.0000
    1TEOS     C   13   0.291  -0.153  -0.220  0.0000  0.0000  0.0000
    1TEOS     H   14   0.154   0.286   0.269  0.0000  0.0000  0.0000
    1TEOS     H   15   0.208   0.136   0.343  0.0000  0.0000  0.0000
    1TEOS     H   16   0.073   0.226   0.416  0.0000  0.0000  0.0000
    1TEOS     H   17  -0.066   0.182   0.215  0.0000  0.0000  0.0000
    1TEOS     H   18  -0.012   0.029   0.290  0.0000  0.0000  0.0000
    1TEOS     H   19  -0.017   0.279  -0.074  0.0000  0.0000  0.0000
    1TEOS     H   20  -0.027   0.184  -0.225  0.0000  0.0000  0.0000
    1TEOS     H   21  -0.182   0.378  -0.232  0.0000  0.0000  0.0000
    1TEOS     H   22  -0.273   0.225  -0.233  0.0000  0.0000  0.0000
    1TEOS     H   23  -0.263   0.318  -0.085  0.0000  0.0000  0.0000
    1TEOS     H   24  -0.109  -0.248  -0.102  0.0000  0.0000  0.0000
    1TEOS     H   25  -0.246  -0.153  -0.039  0.0000  0.0000  0.0000
    1TEOS     H   26  -0.252  -0.299   0.164  0.0000  0.0000  0.0000
    1TEOS     H   27  -0.117  -0.392   0.101  0.0000  0.0000  0.0000
    1TEOS     H   28  -0.272  -0.394   0.015  0.0000  0.0000  0.0000
    1TEOS     H   29   0.285  -0.060  -0.027  0.0000  0.0000  0.0000
    1TEOS     H   30   0.192  -0.213  -0.039  0.0000  0.0000  0.0000
    1TEOS     H   31   0.226  -0.212  -0.286  0.0000  0.0000  0.0000
    1TEOS     H   32   0.382  -0.210  -0.200  0.0000  0.0000  0.0000
    1TEOS     H   33   0.317  -0.062  -0.274  0.0000  0.0000  0.0000

