; ITP file created by ByteFF-ML, 2026-04-09 23:00:48.831682

[ moleculetype ]
;name             nrexcl
 TEOS                  3

[ atoms ]
;       nr            type      resi   res      atom      cgnr      charge          mass ; qtot
         1            c0bf         1   UNL        c0         1    -0.25989       12.0110 ; qtot   -0.260
         2            c1bf         1   UNL        c1         2     0.35222       12.0110 ; qtot    0.092
         3            o2bf         1   UNL        o2         3    -0.60350       15.9990 ; qtot   -0.511
         4           si3bf         1   UNL       si3         4     1.28803       28.0860 ; qtot    0.777
         5            o4bf         1   UNL        o4         5    -0.60350       15.9990 ; qtot    0.173
         6            c5bf         1   UNL        c5         6     0.35222       12.0110 ; qtot    0.526
         7            c6bf         1   UNL        c6         7    -0.25989       12.0110 ; qtot    0.266
         8            o7bf         1   UNL        o7         8    -0.60350       15.9990 ; qtot   -0.338
         9            c8bf         1   UNL        c8         9     0.35221       12.0110 ; qtot    0.014
        10            c9bf         1   UNL        c9        10    -0.25989       12.0110 ; qtot   -0.245
        11           o10bf         1   UNL       o10        11    -0.60350       15.9990 ; qtot   -0.849
        12           c11bf         1   UNL       c11        12     0.35222       12.0110 ; qtot   -0.497
        13           c12bf         1   UNL       c12        13    -0.25989       12.0110 ; qtot   -0.757
        14           h13bf         1   UNL       h13        14     0.08312        1.0080 ; qtot   -0.674
        15           h14bf         1   UNL       h14        15     0.08312        1.0080 ; qtot   -0.590
        16           h15bf         1   UNL       h15        16     0.08312        1.0080 ; qtot   -0.507
        17           h16bf         1   UNL       h16        17    -0.03009        1.0080 ; qtot   -0.537
        18           h17bf         1   UNL       h17        18    -0.03009        1.0080 ; qtot   -0.567
        19           h18bf         1   UNL       h18        19    -0.03009        1.0080 ; qtot   -0.598
        20           h19bf         1   UNL       h19        20    -0.03009        1.0080 ; qtot   -0.628
        21           h20bf         1   UNL       h20        21     0.08312        1.0080 ; qtot   -0.545
        22           h21bf         1   UNL       h21        22     0.08312        1.0080 ; qtot   -0.461
        23           h22bf         1   UNL       h22        23     0.08312        1.0080 ; qtot   -0.378
        24           h23bf         1   UNL       h23        24    -0.03009        1.0080 ; qtot   -0.408
        25           h24bf         1   UNL       h24        25    -0.03009        1.0080 ; qtot   -0.438
        26           h25bf         1   UNL       h25        26     0.08312        1.0080 ; qtot   -0.355
        27           h26bf         1   UNL       h26        27     0.08312        1.0080 ; qtot   -0.272
        28           h27bf         1   UNL       h27        28     0.08312        1.0080 ; qtot   -0.189
        29           h28bf         1   UNL       h28        29    -0.03009        1.0080 ; qtot   -0.219
        30           h29bf         1   UNL       h29        30    -0.03009        1.0080 ; qtot   -0.249
        31           h30bf         1   UNL       h30        31     0.08312        1.0080 ; qtot   -0.166
        32           h31bf         1   UNL       h31        32     0.08312        1.0080 ; qtot   -0.083
        33           h32bf         1   UNL       h32        33     0.08306        1.0080 ; qtot   -0.000

[ bonds ]
;       ai        aj funct               r               k
         1         2     1        0.152157   198703.520239
         1        14     1        0.109456   301882.316260
         1        15     1        0.109456   301882.316260
         1        16     1        0.109456   301882.316260
         2         3     1        0.143684   191376.297900
         2        17     1        0.109675   291905.427295
         2        18     1        0.109675   291905.452832
         3         4     1        0.164189   243858.147656
         4         5     1        0.164189   243858.147656
         4         8     1        0.164189   243858.147656
         4        11     1        0.164189   243858.147656
         5         6     1        0.143684   191376.297900
         6         7     1        0.152157   198703.520239
         6        19     1        0.109675   291905.452832
         6        20     1        0.109675   291905.452832
         7        21     1        0.109456   301882.316260
         7        22     1        0.109456   301882.367334
         7        23     1        0.109456   301882.367334
         8         9     1        0.143684   191376.323437
         9        10     1        0.152157   198703.481934
         9        24     1        0.109675   291905.427295
         9        25     1        0.109675   291905.427295
        10        26     1        0.109456   301882.316260
        10        27     1        0.109456   301882.316260
        10        28     1        0.109456   301882.316260
        11        12     1        0.143684   191376.323437
        12        13     1        0.152157   198703.533008
        12        29     1        0.109675   291905.427295
        12        30     1        0.109675   291905.427295
        13        31     1        0.109456   301882.316260
        13        32     1        0.109456   301882.316260
        13        33     1        0.109456   301882.316260

[ angles ]
;       ai        aj        ak funct           theta             cth
         1         2         3     1      109.443779      602.366335
         1         2        17     1      110.494400      501.754721
         1         2        18     1      110.494400      501.754817
         2         1        14     1      110.534576      497.302326
         2         1        15     1      110.534576      497.302326
         2         1        16     1      110.534576      497.302326
         2         3         4     1      123.644753      278.092513
         3         2        17     1      109.195580      426.610404
         3         2        18     1      109.195580      426.610436
         3         4         5     1      109.476120      353.497692
         3         4         8     1      109.476120      353.497692
         3         4        11     1      109.476120      353.497692
         4         5         6     1      123.644753      278.092513
         4         8         9     1      123.644753      278.092513
         4        11        12     1      123.644753      278.092513
         5         4         8     1      109.476120      353.497692
         5         4        11     1      109.476120      353.497692
         5         6         7     1      109.443779      602.366335
         5         6        19     1      109.195580      426.610436
         5         6        20     1      109.195580      426.610436
         6         7        21     1      110.534576      497.302166
         6         7        22     1      110.534576      497.302166
         6         7        23     1      110.534576      497.302166
         7         6        19     1      110.494400      501.754721
         7         6        20     1      110.494400      501.754721
         8         4        11     1      109.476128      353.497756
         8         9        10     1      109.443771      602.366271
         8         9        24     1      109.195587      426.610404
         8         9        25     1      109.195587      426.610404
         9        10        26     1      110.534576      497.302294
         9        10        27     1      110.534576      497.302230
         9        10        28     1      110.534576      497.302230
        10         9        24     1      110.494400      501.754721
        10         9        25     1      110.494400      501.754721
        11        12        13     1      109.443779      602.366335
        11        12        29     1      109.195587      426.610436
        11        12        30     1      109.195587      426.610436
        12        13        31     1      110.534576      497.302230
        12        13        32     1      110.534576      497.302230
        12        13        33     1      110.534576      497.302230
        13        12        29     1      110.494400      501.754657
        13        12        30     1      110.494400      501.754657
        14         1        15     1      108.385445      362.313038
        14         1        16     1      108.385445      362.313038
        15         1        16     1      108.385445      362.313038
        17         2        18     1      107.665375      348.772561
        19         6        20     1      107.665382      348.772688
        21         7        22     1      108.385445      362.313038
        21         7        23     1      108.385445      362.313038
        22         7        23     1      108.385445      362.313070
        24         9        25     1      107.665375      348.772624
        26        10        27     1      108.385445      362.313102
        26        10        28     1      108.385445      362.313102
        27        10        28     1      108.385445      362.313102
        29        12        30     1      107.665375      348.772624
        31        13        32     1      108.385445      362.313102
        31        13        33     1      108.385445      362.313102
        32        13        33     1      108.385445      362.313102

[ dihedrals ] ; propers for gromacs 4.5 or higher, use funct 9
;       ai        aj        ak        al funct           phase               k        pn
         1         2         3         4     9        0.000000        0.063317         1
         1         2         3         4     9      180.000000        0.126080         2
         1         2         3         4     9        0.000000        1.635442         3
         1         2         3         4     9      180.000000        0.000501         4
         2         3         4         5     9        0.000000       -2.067995         1
         2         3         4         5     9      180.000000       -3.526918         2
         2         3         4         5     9        0.000000        3.537682         3
         2         3         4         5     9      180.000000        0.020560         4
         2         3         4         8     9        0.000000       -2.067995         1
         2         3         4         8     9      180.000000       -3.526918         2
         2         3         4         8     9        0.000000        3.537682         3
         2         3         4         8     9      180.000000        0.020560         4
         2         3         4        11     9        0.000000       -2.067995         1
         2         3         4        11     9      180.000000       -3.526918         2
         2         3         4        11     9        0.000000        3.537682         3
         2         3         4        11     9      180.000000        0.020560         4
         3         2         1        14     9        0.000000        1.003294         1
         3         2         1        14     9      180.000000       -0.017806         2
         3         2         1        14     9        0.000000       -0.012573         3
         3         2         1        14     9      180.000000       -0.008647         4
         3         2         1        15     9        0.000000        1.003294         1
         3         2         1        15     9      180.000000       -0.017806         2
         3         2         1        15     9        0.000000       -0.012573         3
         3         2         1        15     9      180.000000       -0.008647         4
         3         2         1        16     9        0.000000        1.003294         1
         3         2         1        16     9      180.000000       -0.017806         2
         3         2         1        16     9        0.000000       -0.012573         3
         3         2         1        16     9      180.000000       -0.008647         4
         3         4         5         6     9        0.000000       -2.067995         1
         3         4         5         6     9      180.000000       -3.526918         2
         3         4         5         6     9        0.000000        3.537682         3
         3         4         5         6     9      180.000000        0.020560         4
         3         4         8         9     9        0.000000       -2.067995         1
         3         4         8         9     9      180.000000       -3.526918         2
         3         4         8         9     9        0.000000        3.537682         3
         3         4         8         9     9      180.000000        0.020560         4
         3         4        11        12     9        0.000000       -2.067995         1
         3         4        11        12     9      180.000000       -3.526918         2
         3         4        11        12     9        0.000000        3.537682         3
         3         4        11        12     9      180.000000        0.020560         4
         4         3         2        17     9        0.000000        0.011959         1
         4         3         2        17     9      180.000000       -0.013011         2
         4         3         2        17     9        0.000000        1.589823         3
         4         3         2        17     9      180.000000       -0.004550         4
         4         3         2        18     9        0.000000        0.011959         1
         4         3         2        18     9      180.000000       -0.013010         2
         4         3         2        18     9        0.000000        1.589821         3
         4         3         2        18     9      180.000000       -0.004550         4
         4         5         6         7     9        0.000000        0.063317         1
         4         5         6         7     9      180.000000        0.126080         2
         4         5         6         7     9        0.000000        1.635442         3
         4         5         6         7     9      180.000000        0.000501         4
         4         5         6        19     9        0.000000        0.011959         1
         4         5         6        19     9      180.000000       -0.013010         2
         4         5         6        19     9        0.000000        1.589821         3
         4         5         6        19     9      180.000000       -0.004550         4
         4         5         6        20     9        0.000000        0.011959         1
         4         5         6        20     9      180.000000       -0.013010         2
         4         5         6        20     9        0.000000        1.589821         3
         4         5         6        20     9      180.000000       -0.004550         4
         4         8         9        10     9        0.000000        0.063317         1
         4         8         9        10     9      180.000000        0.126080         2
         4         8         9        10     9        0.000000        1.635442         3
         4         8         9        10     9      180.000000        0.000501         4
         4         8         9        24     9        0.000000        0.011959         1
         4         8         9        24     9      180.000000       -0.013010         2
         4         8         9        24     9        0.000000        1.589821         3
         4         8         9        24     9      180.000000       -0.004550         4
         4         8         9        25     9        0.000000        0.011959         1
         4         8         9        25     9      180.000000       -0.013010         2
         4         8         9        25     9        0.000000        1.589821         3
         4         8         9        25     9      180.000000       -0.004550         4
         4        11        12        13     9        0.000000        0.063317         1
         4        11        12        13     9      180.000000        0.126080         2
         4        11        12        13     9        0.000000        1.635442         3
         4        11        12        13     9      180.000000        0.000501         4
         4        11        12        29     9        0.000000        0.011960         1
         4        11        12        29     9      180.000000       -0.013008         2
         4        11        12        29     9        0.000000        1.589822         3
         4        11        12        29     9      180.000000       -0.004551         4
         4        11        12        30     9        0.000000        0.011960         1
         4        11        12        30     9      180.000000       -0.013009         2
         4        11        12        30     9        0.000000        1.589821         3
         4        11        12        30     9      180.000000       -0.004551         4
         5         4         8         9     9        0.000000       -2.067995         1
         5         4         8         9     9      180.000000       -3.526920         2
         5         4         8         9     9        0.000000        3.537679         3
         5         4         8         9     9      180.000000        0.020561         4
         5         4        11        12     9        0.000000       -2.067995         1
         5         4        11        12     9      180.000000       -3.526920         2
         5         4        11        12     9        0.000000        3.537679         3
         5         4        11        12     9      180.000000        0.020561         4
         5         6         7        21     9        0.000000        1.003293         1
         5         6         7        21     9      180.000000       -0.017808         2
         5         6         7        21     9        0.000000       -0.012573         3
         5         6         7        21     9      180.000000       -0.008646         4
         5         6         7        22     9        0.000000        1.003293         1
         5         6         7        22     9      180.000000       -0.017808         2
         5         6         7        22     9        0.000000       -0.012573         3
         5         6         7        22     9      180.000000       -0.008646         4
         5         6         7        23     9        0.000000        1.003293         1
         5         6         7        23     9      180.000000       -0.017808         2
         5         6         7        23     9        0.000000       -0.012573         3
         5         6         7        23     9      180.000000       -0.008646         4
         6         5         4         8     9        0.000000       -2.067995         1
         6         5         4         8     9      180.000000       -3.526920         2
         6         5         4         8     9        0.000000        3.537679         3
         6         5         4         8     9      180.000000        0.020561         4
         6         5         4        11     9        0.000000       -2.067995         1
         6         5         4        11     9      180.000000       -3.526920         2
         6         5         4        11     9        0.000000        3.537679         3
         6         5         4        11     9      180.000000        0.020561         4
         8         4        11        12     9        0.000000       -2.067995         1
         8         4        11        12     9      180.000000       -3.526920         2
         8         4        11        12     9        0.000000        3.537679         3
         8         4        11        12     9      180.000000        0.020561         4
         8         9        10        26     9        0.000000        1.003290         1
         8         9        10        26     9      180.000000       -0.017808         2
         8         9        10        26     9        0.000000       -0.012571         3
         8         9        10        26     9      180.000000       -0.008646         4
         8         9        10        27     9        0.000000        1.003292         1
         8         9        10        27     9      180.000000       -0.017803         2
         8         9        10        27     9        0.000000       -0.012571         3
         8         9        10        27     9      180.000000       -0.008646         4
         8         9        10        28     9        0.000000        1.003292         1
         8         9        10        28     9      180.000000       -0.017803         2
         8         9        10        28     9        0.000000       -0.012571         3
         8         9        10        28     9      180.000000       -0.008646         4
         9         8         4        11     9        0.000000       -2.067997         1
         9         8         4        11     9      180.000000       -3.526922         2
         9         8         4        11     9        0.000000        3.537675         3
         9         8         4        11     9      180.000000        0.020559         4
        11        12        13        31     9        0.000000        1.003292         1
        11        12        13        31     9      180.000000       -0.017803         2
        11        12        13        31     9        0.000000       -0.012571         3
        11        12        13        31     9      180.000000       -0.008646         4
        11        12        13        32     9        0.000000        1.003292         1
        11        12        13        32     9      180.000000       -0.017803         2
        11        12        13        32     9        0.000000       -0.012571         3
        11        12        13        32     9      180.000000       -0.008646         4
        11        12        13        33     9        0.000000        1.003292         1
        11        12        13        33     9      180.000000       -0.017803         2
        11        12        13        33     9        0.000000       -0.012571         3
        11        12        13        33     9      180.000000       -0.008646         4
        14         1         2        17     9        0.000000        0.002602         1
        14         1         2        17     9      180.000000       -0.005462         2
        14         1         2        17     9        0.000000        0.657192         3
        14         1         2        17     9      180.000000       -0.001298         4
        14         1         2        18     9        0.000000        0.002601         1
        14         1         2        18     9      180.000000       -0.005458         2
        14         1         2        18     9        0.000000        0.657193         3
        14         1         2        18     9      180.000000       -0.001298         4
        15         1         2        17     9        0.000000        0.002602         1
        15         1         2        17     9      180.000000       -0.005462         2
        15         1         2        17     9        0.000000        0.657192         3
        15         1         2        17     9      180.000000       -0.001298         4
        15         1         2        18     9        0.000000        0.002601         1
        15         1         2        18     9      180.000000       -0.005458         2
        15         1         2        18     9        0.000000        0.657193         3
        15         1         2        18     9      180.000000       -0.001298         4
        16         1         2        17     9        0.000000        0.002602         1
        16         1         2        17     9      180.000000       -0.005461         2
        16         1         2        17     9        0.000000        0.657192         3
        16         1         2        17     9      180.000000       -0.001297         4
        16         1         2        18     9        0.000000        0.002601         1
        16         1         2        18     9      180.000000       -0.005460         2
        16         1         2        18     9        0.000000        0.657191         3
        16         1         2        18     9      180.000000       -0.001298         4
        19         6         7        21     9        0.000000        0.002602         1
        19         6         7        21     9      180.000000       -0.005459         2
        19         6         7        21     9        0.000000        0.657192         3
        19         6         7        21     9      180.000000       -0.001298         4
        19         6         7        22     9        0.000000        0.002602         1
        19         6         7        22     9      180.000000       -0.005459         2
        19         6         7        22     9        0.000000        0.657192         3
        19         6         7        22     9      180.000000       -0.001298         4
        19         6         7        23     9        0.000000        0.002602         1
        19         6         7        23     9      180.000000       -0.005459         2
        19         6         7        23     9        0.000000        0.657192         3
        19         6         7        23     9      180.000000       -0.001298         4
        20         6         7        21     9        0.000000        0.002602         1
        20         6         7        21     9      180.000000       -0.005459         2
        20         6         7        21     9        0.000000        0.657192         3
        20         6         7        21     9      180.000000       -0.001298         4
        20         6         7        22     9        0.000000        0.002602         1
        20         6         7        22     9      180.000000       -0.005459         2
        20         6         7        22     9        0.000000        0.657192         3
        20         6         7        22     9      180.000000       -0.001298         4
        20         6         7        23     9        0.000000        0.002602         1
        20         6         7        23     9      180.000000       -0.005459         2
        20         6         7        23     9        0.000000        0.657192         3
        20         6         7        23     9      180.000000       -0.001298         4
        24         9        10        26     9        0.000000        0.002602         1
        24         9        10        26     9      180.000000       -0.005458         2
        24         9        10        26     9        0.000000        0.657192         3
        24         9        10        26     9      180.000000       -0.001297         4
        24         9        10        27     9        0.000000        0.002602         1
        24         9        10        27     9      180.000000       -0.005458         2
        24         9        10        27     9        0.000000        0.657192         3
        24         9        10        27     9      180.000000       -0.001297         4
        24         9        10        28     9        0.000000        0.002602         1
        24         9        10        28     9      180.000000       -0.005460         2
        24         9        10        28     9        0.000000        0.657192         3
        24         9        10        28     9      180.000000       -0.001297         4
        25         9        10        26     9        0.000000        0.002602         1
        25         9        10        26     9      180.000000       -0.005460         2
        25         9        10        26     9        0.000000        0.657192         3
        25         9        10        26     9      180.000000       -0.001297         4
        25         9        10        27     9        0.000000        0.002602         1
        25         9        10        27     9      180.000000       -0.005460         2
        25         9        10        27     9        0.000000        0.657192         3
        25         9        10        27     9      180.000000       -0.001297         4
        25         9        10        28     9        0.000000        0.002602         1
        25         9        10        28     9      180.000000       -0.005460         2
        25         9        10        28     9        0.000000        0.657192         3
        25         9        10        28     9      180.000000       -0.001297         4
        29        12        13        31     9        0.000000        0.002602         1
        29        12        13        31     9      180.000000       -0.005458         2
        29        12        13        31     9        0.000000        0.657192         3
        29        12        13        31     9      180.000000       -0.001297         4
        29        12        13        32     9        0.000000        0.002602         1
        29        12        13        32     9      180.000000       -0.005458         2
        29        12        13        32     9        0.000000        0.657192         3
        29        12        13        32     9      180.000000       -0.001297         4
        29        12        13        33     9        0.000000        0.002602         1
        29        12        13        33     9      180.000000       -0.005458         2
        29        12        13        33     9        0.000000        0.657192         3
        29        12        13        33     9      180.000000       -0.001297         4
        30        12        13        31     9        0.000000        0.002602         1
        30        12        13        31     9      180.000000       -0.005458         2
        30        12        13        31     9        0.000000        0.657192         3
        30        12        13        31     9      180.000000       -0.001297         4
        30        12        13        32     9        0.000000        0.002602         1
        30        12        13        32     9      180.000000       -0.005458         2
        30        12        13        32     9        0.000000        0.657192         3
        30        12        13        32     9      180.000000       -0.001297         4
        30        12        13        33     9        0.000000        0.002602         1
        30        12        13        33     9      180.000000       -0.005458         2
        30        12        13        33     9        0.000000        0.657192         3
        30        12        13        33     9      180.000000       -0.001297         4

[ pairs ]
;       ai        aj funct
         1         4     1
         2         5     1
         2         8     1
         2        11     1
         3         6     1
         3         9     1
         3        12     1
         3        14     1
         3        15     1
         3        16     1
         4         7     1
         4        10     1
         4        13     1
         4        17     1
         4        18     1
         4        19     1
         4        20     1
         4        24     1
         4        25     1
         4        29     1
         4        30     1
         5         9     1
         5        12     1
         5        21     1
         5        22     1
         5        23     1
         6         8     1
         6        11     1
         8        12     1
         8        26     1
         8        27     1
         8        28     1
         9        11     1
        11        31     1
        11        32     1
        11        33     1
        14        17     1
        14        18     1
        15        17     1
        15        18     1
        16        17     1
        16        18     1
        19        21     1
        19        22     1
        19        23     1
        20        21     1
        20        22     1
        20        23     1
        24        26     1
        24        27     1
        24        28     1
        25        26     1
        25        27     1
        25        28     1
        29        31     1
        29        32     1
        29        33     1
        30        31     1
        30        32     1
        30        33     1
