; ITP file created by ByteFF-ML, 2026-04-09 23:01:03.362051

[ moleculetype ]
;name             nrexcl
 TMSNCS                3

[ atoms ]
;       nr            type      resi   res      atom      cgnr      charge          mass ; qtot
         1            c0bf         1   UNL        c0         1    -0.60322       12.0110 ; qtot   -0.603
         2           si1bf         1   UNL       si1         2     1.19826       28.0860 ; qtot    0.595
         3            c2bf         1   UNL        c2         3    -0.60322       12.0110 ; qtot   -0.008
         4            c3bf         1   UNL        c3         4    -0.60322       12.0110 ; qtot   -0.611
         5            n4bf         1   UNL        n4         5    -0.64339       14.0070 ; qtot   -1.255
         6            c5bf         1   UNL        c5         6     0.30172       12.0110 ; qtot   -0.953
         7            s6bf         1   UNL        s6         7    -0.15906       32.0670 ; qtot   -1.112
         8            h7bf         1   UNL        h7         8     0.12357        1.0080 ; qtot   -0.989
         9            h8bf         1   UNL        h8         9     0.12357        1.0080 ; qtot   -0.865
        10            h9bf         1   UNL        h9        10     0.12357        1.0080 ; qtot   -0.741
        11           h10bf         1   UNL       h10        11     0.12357        1.0080 ; qtot   -0.618
        12           h11bf         1   UNL       h11        12     0.12357        1.0080 ; qtot   -0.494
        13           h12bf         1   UNL       h12        13     0.12357        1.0080 ; qtot   -0.371
        14           h13bf         1   UNL       h13        14     0.12357        1.0080 ; qtot   -0.247
        15           h14bf         1   UNL       h14        15     0.12357        1.0080 ; qtot   -0.124
        16           h15bf         1   UNL       h15        16     0.12357        1.0080 ; qtot    0.000

[ bonds ]
;       ai        aj funct               r               k
         1         2     1        0.187542   162158.946313
         1         8     1        0.109519   308212.301709
         1         9     1        0.109519   308212.276172
         1        10     1        0.109519   308212.301709
         2         3     1        0.187542   162158.946313
         2         4     1        0.187542   162159.022925
         2         5     1        0.174236   194329.983813
         3        11     1        0.109519   308212.301709
         3        12     1        0.109519   308212.276172
         3        13     1        0.109519   308212.250635
         4        14     1        0.109519   308212.250635
         4        15     1        0.109519   308212.301709
         4        16     1        0.109519   308212.250635
         5         6     1        0.119185   932910.034766
         6         7     1        0.159386   340987.062012

[ angles ]
;       ai        aj        ak funct           theta             cth
         1         2         3     1      112.418503      658.802645
         1         2         4     1      112.418503      658.802645
         1         2         5     1      106.926682      483.477365
         2         1         8     1      110.934158      425.518916
         2         1         9     1      110.934158      425.518916
         2         1        10     1      110.934158      425.518916
         2         3        11     1      110.934158      425.518916
         2         3        12     1      110.934158      425.518916
         2         3        13     1      110.934151      425.518916
         2         4        14     1      110.934151      425.518916
         2         4        15     1      110.934151      425.518884
         2         4        16     1      110.934151      425.518884
         2         5         6     1      175.400146      167.360000
         3         2         4     1      112.418510      658.802709
         3         2         5     1      106.926682      483.477429
         4         2         5     1      106.926682      483.477429
         5         6         7     1      178.727814      167.360000
         8         1         9     1      108.019485      375.790822
         8         1        10     1      108.019485      375.790822
         9         1        10     1      108.019485      375.790822
        11         3        12     1      108.019485      375.790822
        11         3        13     1      108.019485      375.790822
        12         3        13     1      108.019485      375.790886
        14         4        15     1      108.019485      375.790886
        14         4        16     1      108.019485      375.790822
        15         4        16     1      108.019485      375.790886

[ dihedrals ] ; propers for gromacs 4.5 or higher, use funct 9
;       ai        aj        ak        al funct           phase               k        pn
         1         2         3        11     9        0.000000        0.006987         1
         1         2         3        11     9      180.000000       -0.000622         2
         1         2         3        11     9        0.000000        0.514541         3
         1         2         3        11     9      180.000000       -0.002318         4
         1         2         3        12     9        0.000000        0.006987         1
         1         2         3        12     9      180.000000       -0.000622         2
         1         2         3        12     9        0.000000        0.514541         3
         1         2         3        12     9      180.000000       -0.002318         4
         1         2         3        13     9        0.000000        0.006986         1
         1         2         3        13     9      180.000000       -0.000621         2
         1         2         3        13     9        0.000000        0.514542         3
         1         2         3        13     9      180.000000       -0.002318         4
         1         2         4        14     9        0.000000        0.006986         1
         1         2         4        14     9      180.000000       -0.000621         2
         1         2         4        14     9        0.000000        0.514542         3
         1         2         4        14     9      180.000000       -0.002318         4
         1         2         4        15     9        0.000000        0.006986         1
         1         2         4        15     9      180.000000       -0.000621         2
         1         2         4        15     9        0.000000        0.514542         3
         1         2         4        15     9      180.000000       -0.002318         4
         1         2         4        16     9        0.000000        0.006986         1
         1         2         4        16     9      180.000000       -0.000621         2
         1         2         4        16     9        0.000000        0.514542         3
         1         2         4        16     9      180.000000       -0.002318         4
         1         2         5         6     9        0.000000        0.004935         1
         1         2         5         6     9      180.000000        0.127080         2
         1         2         5         6     9        0.000000        0.601093         3
         1         2         5         6     9      180.000000        0.012850         4
         2         5         6         7     9        0.000000        0.000000         1
         2         5         6         7     9      180.000000        0.000000         2
         2         5         6         7     9        0.000000       -0.000000         3
         2         5         6         7     9      180.000000        0.000000         4
         3         2         1         8     9        0.000000        0.006986         1
         3         2         1         8     9      180.000000       -0.000621         2
         3         2         1         8     9        0.000000        0.514541         3
         3         2         1         8     9      180.000000       -0.002318         4
         3         2         1         9     9        0.000000        0.006987         1
         3         2         1         9     9      180.000000       -0.000622         2
         3         2         1         9     9        0.000000        0.514541         3
         3         2         1         9     9      180.000000       -0.002318         4
         3         2         1        10     9        0.000000        0.006987         1
         3         2         1        10     9      180.000000       -0.000622         2
         3         2         1        10     9        0.000000        0.514541         3
         3         2         1        10     9      180.000000       -0.002318         4
         3         2         4        14     9        0.000000        0.006986         1
         3         2         4        14     9      180.000000       -0.000622         2
         3         2         4        14     9        0.000000        0.514541         3
         3         2         4        14     9      180.000000       -0.002318         4
         3         2         4        15     9        0.000000        0.006986         1
         3         2         4        15     9      180.000000       -0.000622         2
         3         2         4        15     9        0.000000        0.514541         3
         3         2         4        15     9      180.000000       -0.002318         4
         3         2         4        16     9        0.000000        0.006986         1
         3         2         4        16     9      180.000000       -0.000622         2
         3         2         4        16     9        0.000000        0.514541         3
         3         2         4        16     9      180.000000       -0.002318         4
         3         2         5         6     9        0.000000        0.004935         1
         3         2         5         6     9      180.000000        0.127083         2
         3         2         5         6     9        0.000000        0.601093         3
         3         2         5         6     9      180.000000        0.012851         4
         4         2         1         8     9        0.000000        0.006986         1
         4         2         1         8     9      180.000000       -0.000625         2
         4         2         1         8     9        0.000000        0.514540         3
         4         2         1         8     9      180.000000       -0.002319         4
         4         2         1         9     9        0.000000        0.006985         1
         4         2         1         9     9      180.000000       -0.000623         2
         4         2         1         9     9        0.000000        0.514540         3
         4         2         1         9     9      180.000000       -0.002319         4
         4         2         1        10     9        0.000000        0.006985         1
         4         2         1        10     9      180.000000       -0.000623         2
         4         2         1        10     9        0.000000        0.514540         3
         4         2         1        10     9      180.000000       -0.002319         4
         4         2         3        11     9        0.000000        0.006985         1
         4         2         3        11     9      180.000000       -0.000623         2
         4         2         3        11     9        0.000000        0.514540         3
         4         2         3        11     9      180.000000       -0.002319         4
         4         2         3        12     9        0.000000        0.006985         1
         4         2         3        12     9      180.000000       -0.000623         2
         4         2         3        12     9        0.000000        0.514540         3
         4         2         3        12     9      180.000000       -0.002319         4
         4         2         3        13     9        0.000000        0.006985         1
         4         2         3        13     9      180.000000       -0.000624         2
         4         2         3        13     9        0.000000        0.514540         3
         4         2         3        13     9      180.000000       -0.002317         4
         4         2         5         6     9        0.000000        0.004935         1
         4         2         5         6     9      180.000000        0.127080         2
         4         2         5         6     9        0.000000        0.601091         3
         4         2         5         6     9      180.000000        0.012850         4
         5         2         1         8     9        0.000000       -0.038636         1
         5         2         1         8     9      180.000000       -0.034272         2
         5         2         1         8     9        0.000000        0.614748         3
         5         2         1         8     9      180.000000       -0.005384         4
         5         2         1         9     9        0.000000       -0.038635         1
         5         2         1         9     9      180.000000       -0.034270         2
         5         2         1         9     9        0.000000        0.614748         3
         5         2         1         9     9      180.000000       -0.005385         4
         5         2         1        10     9        0.000000       -0.038635         1
         5         2         1        10     9      180.000000       -0.034270         2
         5         2         1        10     9        0.000000        0.614748         3
         5         2         1        10     9      180.000000       -0.005385         4
         5         2         3        11     9        0.000000       -0.038635         1
         5         2         3        11     9      180.000000       -0.034270         2
         5         2         3        11     9        0.000000        0.614748         3
         5         2         3        11     9      180.000000       -0.005385         4
         5         2         3        12     9        0.000000       -0.038636         1
         5         2         3        12     9      180.000000       -0.034271         2
         5         2         3        12     9        0.000000        0.614748         3
         5         2         3        12     9      180.000000       -0.005385         4
         5         2         3        13     9        0.000000       -0.038636         1
         5         2         3        13     9      180.000000       -0.034274         2
         5         2         3        13     9        0.000000        0.614748         3
         5         2         3        13     9      180.000000       -0.005384         4
         5         2         4        14     9        0.000000       -0.038636         1
         5         2         4        14     9      180.000000       -0.034274         2
         5         2         4        14     9        0.000000        0.614748         3
         5         2         4        14     9      180.000000       -0.005384         4
         5         2         4        15     9        0.000000       -0.038636         1
         5         2         4        15     9      180.000000       -0.034274         2
         5         2         4        15     9        0.000000        0.614748         3
         5         2         4        15     9      180.000000       -0.005384         4
         5         2         4        16     9        0.000000       -0.038636         1
         5         2         4        16     9      180.000000       -0.034274         2
         5         2         4        16     9        0.000000        0.614748         3
         5         2         4        16     9      180.000000       -0.005384         4

[ pairs ]
;       ai        aj funct
         1         6     1
         1        11     1
         1        12     1
         1        13     1
         1        14     1
         1        15     1
         1        16     1
         2         7     1
         3         6     1
         3         8     1
         3         9     1
         3        10     1
         3        14     1
         3        15     1
         3        16     1
         4         6     1
         4         8     1
         4         9     1
         4        10     1
         4        11     1
         4        12     1
         4        13     1
         5         8     1
         5         9     1
         5        10     1
         5        11     1
         5        12     1
         5        13     1
         5        14     1
         5        15     1
         5        16     1
