A Gromacs structure file written by ASE 
   20
    1MTMS     C    1   0.233   0.027  -0.118  0.0000  0.0000  0.0000
    1MTMS     O    2   0.155   0.073  -0.008  0.0000  0.0000  0.0000
    1MTMS    Si    3   0.017  -0.011   0.032  0.0000  0.0000  0.0000
    1MTMS     C    4   0.060  -0.170   0.119  0.0000  0.0000  0.0000
    1MTMS     O    5  -0.076   0.086   0.131  0.0000  0.0000  0.0000
    1MTMS     C    6  -0.091   0.223   0.096  0.0000  0.0000  0.0000
    1MTMS     O    7  -0.069  -0.040  -0.108  0.0000  0.0000  0.0000
    1MTMS     C    8  -0.201  -0.092  -0.097  0.0000  0.0000  0.0000
    1MTMS     H    9   0.177   0.034  -0.212  0.0000  0.0000  0.0000
    1MTMS     H   10   0.321   0.092  -0.126  0.0000  0.0000  0.0000
    1MTMS     H   11   0.268  -0.075  -0.102  0.0000  0.0000  0.0000
    1MTMS     H   12   0.120  -0.151   0.209  0.0000  0.0000  0.0000
    1MTMS     H   13  -0.031  -0.223   0.150  0.0000  0.0000  0.0000
    1MTMS     H   14   0.117  -0.236   0.054  0.0000  0.0000  0.0000
    1MTMS     H   15   0.004   0.277   0.103  0.0000  0.0000  0.0000
    1MTMS     H   16  -0.160   0.269   0.168  0.0000  0.0000  0.0000
    1MTMS     H   17  -0.135   0.235  -0.004  0.0000  0.0000  0.0000
    1MTMS     H   18  -0.267  -0.023  -0.044  0.0000  0.0000  0.0000
    1MTMS     H   19  -0.201  -0.190  -0.047  0.0000  0.0000  0.0000
    1MTMS     H   20  -0.240  -0.106  -0.198  0.0000  0.0000  0.0000

