; ITP file created by ByteFF-ML, 2026-04-09 23:00:57.176079

[ moleculetype ]
;name             nrexcl
 MTMS                  3

[ atoms ]
;       nr            type      resi   res      atom      cgnr      charge          mass ; qtot
         1            c0bf         1   UNL        c0         1     0.20410       12.0110 ; qtot    0.204
         2            o1bf         1   UNL        o1         2    -0.58047       15.9990 ; qtot   -0.376
         3           si2bf         1   UNL       si2         3     1.31867       28.0860 ; qtot    0.942
         4            c3bf         1   UNL        c3         4    -0.68444       12.0110 ; qtot    0.258
         5            o4bf         1   UNL        o4         5    -0.58047       15.9990 ; qtot   -0.323
         6            c5bf         1   UNL        c5         6     0.20410       12.0110 ; qtot   -0.119
         7            o6bf         1   UNL        o6         7    -0.58047       15.9990 ; qtot   -0.699
         8            c7bf         1   UNL        c7         8     0.20410       12.0110 ; qtot   -0.495
         9            h8bf         1   UNL        h8         9     0.00725        1.0080 ; qtot   -0.488
        10            h9bf         1   UNL        h9        10     0.00725        1.0080 ; qtot   -0.480
        11           h10bf         1   UNL       h10        11     0.00725        1.0080 ; qtot   -0.473
        12           h11bf         1   UNL       h11        12     0.14323        1.0080 ; qtot   -0.330
        13           h12bf         1   UNL       h12        13     0.14323        1.0080 ; qtot   -0.187
        14           h13bf         1   UNL       h13        14     0.14323        1.0080 ; qtot   -0.043
        15           h14bf         1   UNL       h14        15     0.00725        1.0080 ; qtot   -0.036
        16           h15bf         1   UNL       h15        16     0.00725        1.0080 ; qtot   -0.029
        17           h16bf         1   UNL       h16        17     0.00725        1.0080 ; qtot   -0.022
        18           h17bf         1   UNL       h17        18     0.00725        1.0080 ; qtot   -0.014
        19           h18bf         1   UNL       h18        19     0.00725        1.0080 ; qtot   -0.007
        20           h19bf         1   UNL       h19        20     0.00719        1.0080 ; qtot   -0.000

[ bonds ]
;       ai        aj funct               r               k
         1         2     1        0.142789   212451.767822
         1         9     1        0.109551   296310.297754
         1        10     1        0.109551   296310.297754
         1        11     1        0.109551   296310.297754
         2         3     1        0.165140   238941.692285
         3         4     1        0.185792   168545.547534
         3         5     1        0.165140   238941.692285
         3         7     1        0.165140   238941.692285
         4        12     1        0.109546   307554.338086
         4        13     1        0.109546   307554.338086
         4        14     1        0.109546   307554.287012
         5         6     1        0.142789   212451.767822
         6        15     1        0.109551   296310.323291
         6        16     1        0.109551   296310.348828
         6        17     1        0.109551   296310.348828
         7         8     1        0.142789   212451.793359
         8        18     1        0.109551   296310.272217
         8        19     1        0.109551   296310.272217
         8        20     1        0.109551   296310.272217

[ angles ]
;       ai        aj        ak funct           theta             cth
         1         2         3     1      123.245346      198.403644
         2         1         9     1      110.134781      434.831310
         2         1        10     1      110.134781      434.831310
         2         1        11     1      110.134781      434.831278
         2         3         4     1      111.431305      445.850126
         2         3         5     1      107.704964      375.216173
         2         3         7     1      107.704964      375.216173
         3         4        12     1      110.889694      420.552651
         3         4        13     1      110.889694      420.552651
         3         4        14     1      110.889694      420.552651
         3         5         6     1      123.245346      198.403644
         3         7         8     1      123.245346      198.403644
         4         3         5     1      111.431297      445.850190
         4         3         7     1      111.431297      445.850190
         5         3         7     1      107.704971      375.216173
         5         6        15     1      110.134781      434.831278
         5         6        16     1      110.134781      434.831310
         5         6        17     1      110.134781      434.831310
         7         8        18     1      110.134781      434.831278
         7         8        19     1      110.134781      434.831278
         7         8        20     1      110.134781      434.831278
         9         1        10     1      108.942833      346.703799
         9         1        11     1      108.942833      346.703863
        10         1        11     1      108.942833      346.703863
        12         4        13     1      107.927887      375.109939
        12         4        14     1      107.927887      375.109939
        13         4        14     1      107.927887      375.109939
        15         6        16     1      108.942833      346.703863
        15         6        17     1      108.942833      346.703895
        16         6        17     1      108.942833      346.703799
        18         8        19     1      108.942833      346.703799
        18         8        20     1      108.942833      346.703799
        19         8        20     1      108.942833      346.703767

[ dihedrals ] ; propers for gromacs 4.5 or higher, use funct 9
;       ai        aj        ak        al funct           phase               k        pn
         1         2         3         4     9        0.000000       -3.646792         1
         1         2         3         4     9      180.000000       -0.291206         2
         1         2         3         4     9        0.000000        3.153826         3
         1         2         3         4     9      180.000000        0.015879         4
         1         2         3         5     9        0.000000       -2.091189         1
         1         2         3         5     9      180.000000       -3.459588         2
         1         2         3         5     9        0.000000        3.540025         3
         1         2         3         5     9      180.000000        0.030712         4
         1         2         3         7     9        0.000000       -2.091189         1
         1         2         3         7     9      180.000000       -3.459588         2
         1         2         3         7     9        0.000000        3.540025         3
         1         2         3         7     9      180.000000        0.030712         4
         2         3         4        12     9        0.000000        1.022213         1
         2         3         4        12     9      180.000000       -0.002392         2
         2         3         4        12     9        0.000000       -0.047119         3
         2         3         4        12     9      180.000000       -0.003920         4
         2         3         4        13     9        0.000000        1.022213         1
         2         3         4        13     9      180.000000       -0.002392         2
         2         3         4        13     9        0.000000       -0.047119         3
         2         3         4        13     9      180.000000       -0.003920         4
         2         3         4        14     9        0.000000        1.022213         1
         2         3         4        14     9      180.000000       -0.002392         2
         2         3         4        14     9        0.000000       -0.047119         3
         2         3         4        14     9      180.000000       -0.003920         4
         2         3         5         6     9        0.000000       -2.091189         1
         2         3         5         6     9      180.000000       -3.459588         2
         2         3         5         6     9        0.000000        3.540025         3
         2         3         5         6     9      180.000000        0.030712         4
         2         3         7         8     9        0.000000       -2.091189         1
         2         3         7         8     9      180.000000       -3.459588         2
         2         3         7         8     9        0.000000        3.540025         3
         2         3         7         8     9      180.000000        0.030712         4
         3         2         1         9     9        0.000000        0.034900         1
         3         2         1         9     9      180.000000       -0.020546         2
         3         2         1         9     9        0.000000        1.533839         3
         3         2         1         9     9      180.000000       -0.001568         4
         3         2         1        10     9        0.000000        0.034900         1
         3         2         1        10     9      180.000000       -0.020546         2
         3         2         1        10     9        0.000000        1.533839         3
         3         2         1        10     9      180.000000       -0.001568         4
         3         2         1        11     9        0.000000        0.034900         1
         3         2         1        11     9      180.000000       -0.020548         2
         3         2         1        11     9        0.000000        1.533840         3
         3         2         1        11     9      180.000000       -0.001568         4
         3         5         6        15     9        0.000000        0.034900         1
         3         5         6        15     9      180.000000       -0.020548         2
         3         5         6        15     9        0.000000        1.533840         3
         3         5         6        15     9      180.000000       -0.001568         4
         3         5         6        16     9        0.000000        0.034901         1
         3         5         6        16     9      180.000000       -0.020549         2
         3         5         6        16     9        0.000000        1.533836         3
         3         5         6        16     9      180.000000       -0.001567         4
         3         5         6        17     9        0.000000        0.034901         1
         3         5         6        17     9      180.000000       -0.020549         2
         3         5         6        17     9        0.000000        1.533836         3
         3         5         6        17     9      180.000000       -0.001567         4
         3         7         8        18     9        0.000000        0.034901         1
         3         7         8        18     9      180.000000       -0.020549         2
         3         7         8        18     9        0.000000        1.533836         3
         3         7         8        18     9      180.000000       -0.001567         4
         3         7         8        19     9        0.000000        0.034900         1
         3         7         8        19     9      180.000000       -0.020544         2
         3         7         8        19     9        0.000000        1.533837         3
         3         7         8        19     9      180.000000       -0.001567         4
         3         7         8        20     9        0.000000        0.034900         1
         3         7         8        20     9      180.000000       -0.020544         2
         3         7         8        20     9        0.000000        1.533837         3
         3         7         8        20     9      180.000000       -0.001567         4
         4         3         5         6     9        0.000000       -3.646790         1
         4         3         5         6     9      180.000000       -0.291206         2
         4         3         5         6     9        0.000000        3.153818         3
         4         3         5         6     9      180.000000        0.015879         4
         4         3         7         8     9        0.000000       -3.646790         1
         4         3         7         8     9      180.000000       -0.291206         2
         4         3         7         8     9        0.000000        3.153818         3
         4         3         7         8     9      180.000000        0.015879         4
         5         3         4        12     9        0.000000        1.022212         1
         5         3         4        12     9      180.000000       -0.002390         2
         5         3         4        12     9        0.000000       -0.047124         3
         5         3         4        12     9      180.000000       -0.003920         4
         5         3         4        13     9        0.000000        1.022212         1
         5         3         4        13     9      180.000000       -0.002390         2
         5         3         4        13     9        0.000000       -0.047124         3
         5         3         4        13     9      180.000000       -0.003920         4
         5         3         4        14     9        0.000000        1.022212         1
         5         3         4        14     9      180.000000       -0.002390         2
         5         3         4        14     9        0.000000       -0.047124         3
         5         3         4        14     9      180.000000       -0.003920         4
         5         3         7         8     9        0.000000       -2.091190         1
         5         3         7         8     9      180.000000       -3.459588         2
         5         3         7         8     9        0.000000        3.540027         3
         5         3         7         8     9      180.000000        0.030711         4
         6         5         3         7     9        0.000000       -2.091187         1
         6         5         3         7     9      180.000000       -3.459585         2
         6         5         3         7     9        0.000000        3.540030         3
         6         5         3         7     9      180.000000        0.030711         4
         7         3         4        12     9        0.000000        1.022211         1
         7         3         4        12     9      180.000000       -0.002387         2
         7         3         4        12     9        0.000000       -0.047122         3
         7         3         4        12     9      180.000000       -0.003920         4
         7         3         4        13     9        0.000000        1.022211         1
         7         3         4        13     9      180.000000       -0.002387         2
         7         3         4        13     9        0.000000       -0.047122         3
         7         3         4        13     9      180.000000       -0.003920         4
         7         3         4        14     9        0.000000        1.022211         1
         7         3         4        14     9      180.000000       -0.002387         2
         7         3         4        14     9        0.000000       -0.047122         3
         7         3         4        14     9      180.000000       -0.003920         4

[ pairs ]
;       ai        aj funct
         1         4     1
         1         5     1
         1         7     1
         2         6     1
         2         8     1
         2        12     1
         2        13     1
         2        14     1
         3         9     1
         3        10     1
         3        11     1
         3        15     1
         3        16     1
         3        17     1
         3        18     1
         3        19     1
         3        20     1
         4         6     1
         4         8     1
         5         8     1
         5        12     1
         5        13     1
         5        14     1
         6         7     1
         7        12     1
         7        13     1
         7        14     1
