A Gromacs structure file written by ASE 
   10
    1EC       O    1   0.269  -0.012  -0.005  0.0000  0.0000  0.0000
    1EC       C    2   0.147  -0.007  -0.003  0.0000  0.0000  0.0000
    1EC       O    3   0.066  -0.113   0.024  0.0000  0.0000  0.0000
    1EC       C    4  -0.066  -0.071  -0.007  0.0000  0.0000  0.0000
    1EC       C    5  -0.059   0.077   0.010  0.0000  0.0000  0.0000
    1EC       O    6   0.074   0.107  -0.027  0.0000  0.0000  0.0000
    1EC       H    7  -0.088  -0.101  -0.110  0.0000  0.0000  0.0000
    1EC       H    8  -0.139  -0.118   0.060  0.0000  0.0000  0.0000
    1EC       H    9  -0.075   0.108   0.113  0.0000  0.0000  0.0000
    1EC       H   10  -0.130   0.130  -0.055  0.0000  0.0000  0.0000

