A Gromacs structure file written by ASE 
    9
    1FSI      N    1   0.018   0.070  -0.061  0.0000  0.0000  0.0000
    1FSI      S    2   0.119  -0.004   0.036  0.0000  0.0000  0.0000
    1FSI      O    3   0.128   0.045   0.173  0.0000  0.0000  0.0000
    1FSI      O    4   0.138  -0.147   0.017  0.0000  0.0000  0.0000
    1FSI      F    5   0.258   0.052  -0.023  0.0000  0.0000  0.0000
    1FSI      S    6  -0.130   0.023  -0.036  0.0000  0.0000  0.0000
    1FSI      O    7  -0.223   0.066  -0.140  0.0000  0.0000  0.0000
    1FSI      O    8  -0.183   0.030   0.099  0.0000  0.0000  0.0000
    1FSI      F    9  -0.125  -0.135  -0.063  0.0000  0.0000  0.0000

