; ITP file created by ByteFF-ML, 2026-04-09 16:10:46.708180

[ moleculetype ]
;name             nrexcl
 FSI                   3

[ atoms ]
;       nr            type      resi   res      atom      cgnr      charge          mass ; qtot
         1            n0bf         1   UNL        n0         1    -0.68428       14.0070 ; qtot   -0.684
         2            s1bf         1   UNL        s1         2     1.12832       32.0670 ; qtot    0.444
         3            o2bf         1   UNL        o2         3    -0.49638       15.9990 ; qtot   -0.052
         4            o3bf         1   UNL        o3         4    -0.49638       15.9990 ; qtot   -0.549
         5            f4bf         1   UNL        f4         5    -0.29341       18.9980 ; qtot   -0.842
         6            s5bf         1   UNL        s5         6     1.12832       32.0670 ; qtot    0.286
         7            o6bf         1   UNL        o6         7    -0.49638       15.9990 ; qtot   -0.210
         8            o7bf         1   UNL        o7         8    -0.49638       15.9990 ; qtot   -0.707
         9            f8bf         1   UNL        f8         9    -0.29343       18.9980 ; qtot   -1.000

[ bonds ]
;       ai        aj funct               r               k
         1         2     1        0.159167   206776.911377
         1         6     1        0.159167   206776.911377
         2         3     1        0.144449   493917.829102
         2         4     1        0.144449   493917.829102
         2         5     1        0.178639   116187.591064
         6         7     1        0.144449   493917.829102
         6         8     1        0.144449   493917.829102
         6         9     1        0.178639   116187.591064

[ angles ]
;       ai        aj        ak funct           theta             cth
         1         2         3     1      112.426872      527.089225
         1         2         4     1      112.426872      527.089225
         1         2         5     1       99.351219      453.400843
         1         6         7     1      112.426872      527.089225
         1         6         8     1      112.426872      527.089225
         1         6         9     1       99.351219      453.400843
         2         1         6     1      122.515015      604.384980
         3         2         4     1      120.719017      698.114726
         3         2         5     1      103.982414      541.600464
         4         2         5     1      103.982414      541.600464
         7         6         8     1      120.719017      698.114726
         7         6         9     1      103.982414      541.600464
         8         6         9     1      103.982414      541.600464

[ dihedrals ] ; propers for gromacs 4.5 or higher, use funct 9
;       ai        aj        ak        al funct           phase               k        pn
         2         1         6         7     9        0.000000       10.562520         1
         2         1         6         7     9      180.000000        1.976978         2
         2         1         6         7     9        0.000000        0.794314         3
         2         1         6         7     9      180.000000       -0.027949         4
         2         1         6         8     9        0.000000       10.562520         1
         2         1         6         8     9      180.000000        1.976978         2
         2         1         6         8     9        0.000000        0.794314         3
         2         1         6         8     9      180.000000       -0.027949         4
         2         1         6         9     9        0.000000        2.779243         1
         2         1         6         9     9      180.000000       -0.758150         2
         2         1         6         9     9        0.000000        0.258346         3
         2         1         6         9     9      180.000000        0.041773         4
         3         2         1         6     9        0.000000       10.562520         1
         3         2         1         6     9      180.000000        1.976978         2
         3         2         1         6     9        0.000000        0.794314         3
         3         2         1         6     9      180.000000       -0.027949         4
         4         2         1         6     9        0.000000       10.562520         1
         4         2         1         6     9      180.000000        1.976979         2
         4         2         1         6     9        0.000000        0.794312         3
         4         2         1         6     9      180.000000       -0.027951         4
         5         2         1         6     9        0.000000        2.779243         1
         5         2         1         6     9      180.000000       -0.758150         2
         5         2         1         6     9        0.000000        0.258346         3
         5         2         1         6     9      180.000000        0.041773         4

[ pairs ]
;       ai        aj funct
         2         7     1
         2         8     1
         2         9     1
         3         6     1
         4         6     1
         5         6     1
