A Gromacs structure file written by ASE 
   10
    1LiFSI   Li    1   0.020  -0.254  -0.014  0.0000  0.0000  0.0000
    1LiFSI    N    2   0.005  -0.069   0.022  0.0000  0.0000  0.0000
    1LiFSI    S    3   0.142   0.027   0.009  0.0000  0.0000  0.0000
    1LiFSI    O    4   0.264  -0.059  -0.019  0.0000  0.0000  0.0000
    1LiFSI    O    5   0.161   0.100   0.140  0.0000  0.0000  0.0000
    1LiFSI    F    6   0.132   0.139  -0.113  0.0000  0.0000  0.0000
    1LiFSI    S    7  -0.145   0.005  -0.002  0.0000  0.0000  0.0000
    1LiFSI    O    8  -0.210   0.022   0.134  0.0000  0.0000  0.0000
    1LiFSI    O    9  -0.236  -0.073  -0.093  0.0000  0.0000  0.0000
    1LiFSI    F   10  -0.134   0.162  -0.063  0.0000  0.0000  0.0000

