; ITP file created by ByteFF-ML, 2026-04-09 14:55:24.363338

[ moleculetype ]
;name             nrexcl
 LiFSI                 3

[ atoms ]
;       nr            type      resi   res      atom      cgnr      charge          mass ; qtot
         1           li0bf         1   UNL       li0         1     1.05995        6.9410 ; qtot    1.060
         2            n1bf         1   UNL        n1         2    -0.81002       14.0070 ; qtot    0.250
         3            s2bf         1   UNL        s2         3     1.02020       32.0670 ; qtot    1.270
         4            o3bf         1   UNL        o3         4    -0.46046       15.9990 ; qtot    0.810
         5            o4bf         1   UNL        o4         5    -0.46046       15.9990 ; qtot    0.349
         6            f5bf         1   UNL        f5         6    -0.22425       18.9980 ; qtot    0.125
         7            s6bf         1   UNL        s6         7     1.02020       32.0670 ; qtot    1.145
         8            o7bf         1   UNL        o7         8    -0.46046       15.9990 ; qtot    0.685
         9            o8bf         1   UNL        o8         9    -0.46046       15.9990 ; qtot    0.224
        10            f9bf         1   UNL        f9        10    -0.22424       18.9980 ; qtot    0.000

[ bonds ]
;       ai        aj funct               r               k
         1         2     1        0.144143   183285.886279
         2         3     1        0.164160   167942.999438
         2         7     1        0.164160   167942.999438
         3         4     1        0.144688   544375.837402
         3         5     1        0.144688   544375.837402
         3         6     1        0.176222   127585.466943
         7         8     1        0.144688   544375.837402
         7         9     1        0.144688   544375.837402
         7        10     1        0.176222   127585.466943

[ angles ]
;       ai        aj        ak funct           theta             cth
         1         2         3     1      117.316277      514.208850
         1         2         7     1      117.316277      514.208850
         2         3         4     1      112.082382      508.797026
         2         3         5     1      112.082382      508.797026
         2         3         6     1       99.515030      409.188797
         2         7         8     1      112.082382      508.797026
         2         7         9     1      112.082382      508.797026
         2         7        10     1       99.515030      409.188797
         3         2         7     1      121.214874      684.137117
         4         3         5     1      122.603523      688.365105
         4         3         6     1      106.136307      556.788149
         5         3         6     1      106.136307      556.788149
         8         7         9     1      122.603523      688.365105
         8         7        10     1      106.136307      556.788149
         9         7        10     1      106.136307      556.788149

[ dihedrals ] ; propers for gromacs 4.5 or higher, use funct 9
;       ai        aj        ak        al funct           phase               k        pn
         1         2         3         4     9        0.000000        9.946622         1
         1         2         3         4     9      180.000000        2.700623         2
         1         2         3         4     9        0.000000        0.685271         3
         1         2         3         4     9      180.000000       -0.411901         4
         1         2         3         5     9        0.000000        9.946622         1
         1         2         3         5     9      180.000000        2.700623         2
         1         2         3         5     9        0.000000        0.685271         3
         1         2         3         5     9      180.000000       -0.411901         4
         1         2         3         6     9        0.000000        1.277875         1
         1         2         3         6     9      180.000000       -2.963125         2
         1         2         3         6     9        0.000000        0.222456         3
         1         2         3         6     9      180.000000       -0.436186         4
         1         2         7         8     9        0.000000        9.946622         1
         1         2         7         8     9      180.000000        2.700623         2
         1         2         7         8     9        0.000000        0.685271         3
         1         2         7         8     9      180.000000       -0.411901         4
         1         2         7         9     9        0.000000        9.946622         1
         1         2         7         9     9      180.000000        2.700623         2
         1         2         7         9     9        0.000000        0.685271         3
         1         2         7         9     9      180.000000       -0.411901         4
         1         2         7        10     9        0.000000        1.277875         1
         1         2         7        10     9      180.000000       -2.963125         2
         1         2         7        10     9        0.000000        0.222456         3
         1         2         7        10     9      180.000000       -0.436186         4
         3         2         7         8     9        0.000000        7.944883         1
         3         2         7         8     9      180.000000        1.822526         2
         3         2         7         8     9        0.000000        0.498379         3
         3         2         7         8     9      180.000000       -0.082519         4
         3         2         7         9     9        0.000000        7.944883         1
         3         2         7         9     9      180.000000        1.822526         2
         3         2         7         9     9        0.000000        0.498379         3
         3         2         7         9     9      180.000000       -0.082519         4
         3         2         7        10     9        0.000000        0.533024         1
         3         2         7        10     9      180.000000       -2.648684         2
         3         2         7        10     9        0.000000        0.161322         3
         3         2         7        10     9      180.000000       -0.211243         4
         4         3         2         7     9        0.000000        7.944883         1
         4         3         2         7     9      180.000000        1.822526         2
         4         3         2         7     9        0.000000        0.498379         3
         4         3         2         7     9      180.000000       -0.082519         4
         5         3         2         7     9        0.000000        7.944883         1
         5         3         2         7     9      180.000000        1.822526         2
         5         3         2         7     9        0.000000        0.498379         3
         5         3         2         7     9      180.000000       -0.082519         4
         6         3         2         7     9        0.000000        0.533024         1
         6         3         2         7     9      180.000000       -2.648684         2
         6         3         2         7     9        0.000000        0.161322         3
         6         3         2         7     9      180.000000       -0.211243         4

[ pairs ]
;       ai        aj funct
         1         4     1
         1         5     1
         1         6     1
         1         8     1
         1         9     1
         1        10     1
         3         8     1
         3         9     1
         3        10     1
         4         7     1
         5         7     1
         6         7     1
