A Gromacs structure file written by ASE 
   34
    1TPFPB    F    1  -0.397  -0.383   0.149  0.0000  0.0000  0.0000
    1TPFPB    C    2  -0.302  -0.295   0.108  0.0000  0.0000  0.0000
    1TPFPB    C    3  -0.173  -0.298   0.160  0.0000  0.0000  0.0000
    1TPFPB    F    4  -0.139  -0.390   0.256  0.0000  0.0000  0.0000
    1TPFPB    C    5  -0.078  -0.207   0.116  0.0000  0.0000  0.0000
    1TPFPB    F    6   0.045  -0.211   0.168  0.0000  0.0000  0.0000
    1TPFPB    C    7  -0.107  -0.112   0.019  0.0000  0.0000  0.0000
    1TPFPB    B    8  -0.002  -0.009  -0.031  0.0000  0.0000  0.0000
    1TPFPB    C    9  -0.045   0.143  -0.027  0.0000  0.0000  0.0000
    1TPFPB    C   10  -0.066   0.213  -0.145  0.0000  0.0000  0.0000
    1TPFPB    F   11  -0.049   0.155  -0.266  0.0000  0.0000  0.0000
    1TPFPB    C   12  -0.103   0.345  -0.142  0.0000  0.0000  0.0000
    1TPFPB    F   13  -0.123   0.413  -0.256  0.0000  0.0000  0.0000
    1TPFPB    C   14  -0.120   0.407  -0.018  0.0000  0.0000  0.0000
    1TPFPB    F   15  -0.158   0.537  -0.016  0.0000  0.0000  0.0000
    1TPFPB    C   16  -0.100   0.336   0.101  0.0000  0.0000  0.0000
    1TPFPB    F   17  -0.116   0.396   0.222  0.0000  0.0000  0.0000
    1TPFPB    C   18  -0.061   0.202   0.097  0.0000  0.0000  0.0000
    1TPFPB    F   19  -0.042   0.136   0.214  0.0000  0.0000  0.0000
    1TPFPB    C   20   0.149  -0.038  -0.037  0.0000  0.0000  0.0000
    1TPFPB    C   21   0.192  -0.161  -0.086  0.0000  0.0000  0.0000
    1TPFPB    F   22   0.105  -0.256  -0.129  0.0000  0.0000  0.0000
    1TPFPB    C   23   0.326  -0.193  -0.095  0.0000  0.0000  0.0000
    1TPFPB    F   24   0.369  -0.313  -0.142  0.0000  0.0000  0.0000
    1TPFPB    C   25   0.425  -0.103  -0.054  0.0000  0.0000  0.0000
    1TPFPB    F   26   0.555  -0.137  -0.063  0.0000  0.0000  0.0000
    1TPFPB    C   27   0.383   0.020  -0.004  0.0000  0.0000  0.0000
    1TPFPB    F   28   0.479   0.109   0.036  0.0000  0.0000  0.0000
    1TPFPB    C   29   0.248   0.050   0.003  0.0000  0.0000  0.0000
    1TPFPB    F   30   0.208   0.171   0.052  0.0000  0.0000  0.0000
    1TPFPB    C   31  -0.237  -0.110  -0.032  0.0000  0.0000  0.0000
    1TPFPB    F   32  -0.272  -0.018  -0.128  0.0000  0.0000  0.0000
    1TPFPB    C   33  -0.333  -0.200   0.011  0.0000  0.0000  0.0000
    1TPFPB    F   34  -0.460  -0.200  -0.039  0.0000  0.0000  0.0000

