; ITP file created by ByteFF-ML, 2026-04-09 23:01:01.299131

[ moleculetype ]
;name             nrexcl
 TPFPB                 3

[ atoms ]
;       nr            type      resi   res      atom      cgnr      charge          mass ; qtot
         1            f0bf         1   UNL        f0         1    -0.10147       18.9980 ; qtot   -0.101
         2            c1bf         1   UNL        c1         2     0.13679       12.0110 ; qtot    0.035
         3            c2bf         1   UNL        c2         3     0.03792       12.0110 ; qtot    0.073
         4            f3bf         1   UNL        f3         4    -0.12232       18.9980 ; qtot   -0.049
         5            c4bf         1   UNL        c4         5     0.32551       12.0110 ; qtot    0.276
         6            f5bf         1   UNL        f5         6    -0.16806       18.9980 ; qtot    0.108
         7            c6bf         1   UNL        c6         7    -0.44265       12.0110 ; qtot   -0.334
         8            b7bf         1   UNL        b7         8     0.78368       10.8120 ; qtot    0.449
         9            c8bf         1   UNL        c8         9    -0.44265       12.0110 ; qtot    0.007
        10            c9bf         1   UNL        c9        10     0.32550       12.0110 ; qtot    0.332
        11           f10bf         1   UNL       f10        11    -0.16806       18.9980 ; qtot    0.164
        12           c11bf         1   UNL       c11        12     0.03793       12.0110 ; qtot    0.202
        13           f12bf         1   UNL       f12        13    -0.12232       18.9980 ; qtot    0.080
        14           c13bf         1   UNL       c13        14     0.13679       12.0110 ; qtot    0.217
        15           f14bf         1   UNL       f14        15    -0.10147       18.9980 ; qtot    0.115
        16           c15bf         1   UNL       c15        16     0.03793       12.0110 ; qtot    0.153
        17           f16bf         1   UNL       f16        17    -0.12232       18.9980 ; qtot    0.031
        18           c17bf         1   UNL       c17        18     0.32550       12.0110 ; qtot    0.356
        19           f18bf         1   UNL       f18        19    -0.16806       18.9980 ; qtot    0.188
        20           c19bf         1   UNL       c19        20    -0.44265       12.0110 ; qtot   -0.254
        21           c20bf         1   UNL       c20        21     0.32550       12.0110 ; qtot    0.071
        22           f21bf         1   UNL       f21        22    -0.16806       18.9980 ; qtot   -0.097
        23           c22bf         1   UNL       c22        23     0.03793       12.0110 ; qtot   -0.059
        24           f23bf         1   UNL       f23        24    -0.12232       18.9980 ; qtot   -0.181
        25           c24bf         1   UNL       c24        25     0.13679       12.0110 ; qtot   -0.045
        26           f25bf         1   UNL       f25        26    -0.10147       18.9980 ; qtot   -0.146
        27           c26bf         1   UNL       c26        27     0.03793       12.0110 ; qtot   -0.108
        28           f27bf         1   UNL       f27        28    -0.12232       18.9980 ; qtot   -0.230
        29           c28bf         1   UNL       c28        29     0.32550       12.0110 ; qtot    0.095
        30           f29bf         1   UNL       f29        30    -0.16806       18.9980 ; qtot   -0.073
        31           c30bf         1   UNL       c30        31     0.32551       12.0110 ; qtot    0.252
        32           f31bf         1   UNL       f31        32    -0.16806       18.9980 ; qtot    0.084
        33           c32bf         1   UNL       c32        33     0.03793       12.0110 ; qtot    0.122
        34           f33bf         1   UNL       f33        34    -0.12232       18.9980 ; qtot    0.000

[ bonds ]
;       ai        aj funct               r               k
         1         2     1        0.133631   338568.799902
         2         3     1        0.139343   298782.953906
         2        33     1        0.139343   298782.953906
         3         4     1        0.134204   331178.258301
         3         5     1        0.139407   293091.472803
         5         6     1        0.134901   307257.494727
         5         7     1        0.139886   290803.398877
         7         8     1        0.158108   167391.563867
         7        31     1        0.139886   290803.424414
         8         9     1        0.158108   167391.627710
         8        20     1        0.158108   167391.602173
         9        10     1        0.139886   290803.449951
         9        18     1        0.139886   290803.449951
        10        11     1        0.134901   307257.545801
        10        12     1        0.139407   293091.447266
        12        13     1        0.134204   331178.258301
        12        14     1        0.139343   298783.004980
        14        15     1        0.133631   338568.799902
        14        16     1        0.139343   298782.953906
        16        17     1        0.134204   331178.309375
        16        18     1        0.139407   293091.421729
        18        19     1        0.134901   307257.545801
        20        21     1        0.139886   290803.475488
        20        29     1        0.139886   290803.424414
        21        22     1        0.134901   307257.520264
        21        23     1        0.139407   293091.472803
        23        24     1        0.134204   331178.258301
        23        25     1        0.139343   298782.979443
        25        26     1        0.133631   338568.799902
        25        27     1        0.139343   298782.953906
        27        28     1        0.134204   331178.309375
        27        29     1        0.139407   293091.421729
        29        30     1        0.134901   307257.571338
        31        32     1        0.134901   307257.545801
        31        33     1        0.139407   293091.447266
        33        34     1        0.134204   331178.283838

[ angles ]
;       ai        aj        ak funct           theta             cth
         1         2         3     1      120.099960      432.141838
         1         2        33     1      120.099960      432.141838
         2         3         4     1      119.911148      445.313368
         2         3         5     1      119.275169      651.741187
         2        33        31     1      119.275177      651.741187
         2        33        34     1      119.911156      445.313272
         3         2        33     1      119.622772      671.194591
         3         5         6     1      117.283035      428.362601
         3         5         7     1      122.870819      559.981373
         4         3         5     1      120.523613      384.138552
         5         7         8     1      122.175690      501.542795
         5         7        31     1      115.750816      756.822051
         6         5         7     1      119.953430      470.614291
         7         8         9     1      117.606522      374.926359
         7         8        20     1      117.606522      374.926263
         7        31        32     1      119.953430      470.614259
         7        31        33     1      122.870819      559.981310
         8         7        31     1      122.175690      501.542795
         8         9        10     1      122.175690      501.542795
         8         9        18     1      122.175690      501.542635
         8        20        21     1      122.175690      501.542763
         8        20        29     1      122.175690      501.542635
         9         8        20     1      117.606529      374.926263
         9        10        11     1      119.953430      470.614291
         9        10        12     1      122.870819      559.981182
         9        18        16     1      122.870819      559.981310
         9        18        19     1      119.953430      470.614323
        10         9        18     1      115.750809      756.821796
        10        12        13     1      120.523605      384.138584
        10        12        14     1      119.275177      651.740932
        11        10        12     1      117.283035      428.362409
        12        14        15     1      120.099960      432.141902
        12        14        16     1      119.622772      671.194399
        13        12        14     1      119.911156      445.313496
        14        16        17     1      119.911148      445.313432
        14        16        18     1      119.275177      651.741187
        15        14        16     1      120.099960      432.141934
        16        18        19     1      117.283035      428.362633
        17        16        18     1      120.523605      384.138584
        20        21        22     1      119.953430      470.614291
        20        21        23     1      122.870819      559.981246
        20        29        27     1      122.870819      559.981310
        20        29        30     1      119.953438      470.614387
        21        20        29     1      115.750809      756.821796
        21        23        24     1      120.523605      384.138648
        21        23        25     1      119.275177      651.740996
        22        21        23     1      117.283035      428.362409
        23        25        26     1      120.099960      432.141902
        23        25        27     1      119.622772      671.194463
        24        23        25     1      119.911156      445.313496
        25        27        28     1      119.911148      445.313368
        25        27        29     1      119.275177      651.741187
        26        25        27     1      120.099953      432.142029
        27        29        30     1      117.283035      428.362633
        28        27        29     1      120.523605      384.138584
        31        33        34     1      120.523613      384.138616
        32        31        33     1      117.283043      428.362409

[ dihedrals ] ; propers for gromacs 4.5 or higher, use funct 9
;       ai        aj        ak        al funct           phase               k        pn
         1         2         3         4     9        0.000000        0.004591         1
         1         2         3         4     9      180.000000       15.160620         2
         1         2         3         4     9        0.000000       -0.004724         3
         1         2         3         4     9      180.000000        0.005701         4
         1         2         3         5     9        0.000000       -0.000130         1
         1         2         3         5     9      180.000000       15.147070         2
         1         2         3         5     9        0.000000       -0.000048         3
         1         2         3         5     9      180.000000       -0.001551         4
         1         2        33        31     9        0.000000       -0.000131         1
         1         2        33        31     9      180.000000       15.147074         2
         1         2        33        31     9        0.000000       -0.000048         3
         1         2        33        31     9      180.000000       -0.001552         4
         1         2        33        34     9        0.000000        0.004591         1
         1         2        33        34     9      180.000000       15.160619         2
         1         2        33        34     9        0.000000       -0.004723         3
         1         2        33        34     9      180.000000        0.005700         4
         2         3         5         6     9        0.000000        0.000836         1
         2         3         5         6     9      180.000000       15.163369         2
         2         3         5         6     9        0.000000        0.000113         3
         2         3         5         6     9      180.000000       -0.000583         4
         2         3         5         7     9        0.000000       -0.000768         1
         2         3         5         7     9      180.000000       15.146886         2
         2         3         5         7     9        0.000000        0.005701         3
         2         3         5         7     9      180.000000        0.000748         4
         2        33        31         7     9        0.000000       -0.000768         1
         2        33        31         7     9      180.000000       15.146886         2
         2        33        31         7     9        0.000000        0.005701         3
         2        33        31         7     9      180.000000        0.000748         4
         2        33        31        32     9        0.000000        0.000837         1
         2        33        31        32     9      180.000000       15.163364         2
         2        33        31        32     9        0.000000        0.000114         3
         2        33        31        32     9      180.000000       -0.000581         4
         3         2        33        31     9        0.000000       -0.000080         1
         3         2        33        31     9      180.000000       15.116899         2
         3         2        33        31     9        0.000000        0.002816         3
         3         2        33        31     9      180.000000        0.001242         4
         3         2        33        34     9        0.000000        0.001559         1
         3         2        33        34     9      180.000000       15.164489         2
         3         2        33        34     9        0.000000       -0.000522         3
         3         2        33        34     9      180.000000       -0.001198         4
         3         5         7         8     9        0.000000       -0.004414         1
         3         5         7         8     9      180.000000       15.140685         2
         3         5         7         8     9        0.000000        0.014166         3
         3         5         7         8     9      180.000000       -0.000688         4
         3         5         7        31     9        0.000000        0.001408         1
         3         5         7        31     9      180.000000       15.170967         2
         3         5         7        31     9        0.000000        0.004721         3
         3         5         7        31     9      180.000000        0.000137         4
         4         3         2        33     9        0.000000        0.001559         1
         4         3         2        33     9      180.000000       15.164489         2
         4         3         2        33     9        0.000000       -0.000522         3
         4         3         2        33     9      180.000000       -0.001198         4
         4         3         5         6     9        0.000000        0.003792         1
         4         3         5         6     9      180.000000       15.166091         2
         4         3         5         6     9        0.000000       -0.005291         3
         4         3         5         6     9      180.000000        0.005838         4
         4         3         5         7     9        0.000000        0.001641         1
         4         3         5         7     9      180.000000       15.202487         2
         4         3         5         7     9        0.000000       -0.002951         3
         4         3         5         7     9      180.000000       -0.001828         4
         5         3         2        33     9        0.000000       -0.000082         1
         5         3         2        33     9      180.000000       15.116899         2
         5         3         2        33     9        0.000000        0.002818         3
         5         3         2        33     9      180.000000        0.001243         4
         5         7         8         9     9        0.000000        0.051003         1
         5         7         8         9     9      180.000000        2.775349         2
         5         7         8         9     9        0.000000        0.029734         3
         5         7         8         9     9      180.000000       -0.010481         4
         5         7         8        20     9        0.000000        0.051003         1
         5         7         8        20     9      180.000000        2.775345         2
         5         7         8        20     9        0.000000        0.029734         3
         5         7         8        20     9      180.000000       -0.010481         4
         5         7        31        32     9        0.000000       -0.000379         1
         5         7        31        32     9      180.000000       15.170452         2
         5         7        31        32     9        0.000000       -0.000182         3
         5         7        31        32     9      180.000000       -0.001650         4
         5         7        31        33     9        0.000000        0.001407         1
         5         7        31        33     9      180.000000       15.170967         2
         5         7        31        33     9        0.000000        0.004722         3
         5         7        31        33     9      180.000000        0.000137         4
         6         5         7         8     9        0.000000        0.001999         1
         6         5         7         8     9      180.000000       15.125756         2
         6         5         7         8     9        0.000000       -0.008311         3
         6         5         7         8     9      180.000000       -0.003889         4
         6         5         7        31     9        0.000000       -0.000381         1
         6         5         7        31     9      180.000000       15.170452         2
         6         5         7        31     9        0.000000       -0.000184         3
         6         5         7        31     9      180.000000       -0.001652         4
         7         8         9        10     9        0.000000        0.051002         1
         7         8         9        10     9      180.000000        2.775345         2
         7         8         9        10     9        0.000000        0.029734         3
         7         8         9        10     9      180.000000       -0.010481         4
         7         8         9        18     9        0.000000        0.051003         1
         7         8         9        18     9      180.000000        2.775350         2
         7         8         9        18     9        0.000000        0.029734         3
         7         8         9        18     9      180.000000       -0.010480         4
         7         8        20        21     9        0.000000        0.051004         1
         7         8        20        21     9      180.000000        2.775351         2
         7         8        20        21     9        0.000000        0.029733         3
         7         8        20        21     9      180.000000       -0.010481         4
         7         8        20        29     9        0.000000        0.051003         1
         7         8        20        29     9      180.000000        2.775345         2
         7         8        20        29     9        0.000000        0.029736         3
         7         8        20        29     9      180.000000       -0.010481         4
         7        31        33        34     9        0.000000        0.001639         1
         7        31        33        34     9      180.000000       15.202490         2
         7        31        33        34     9        0.000000       -0.002950         3
         7        31        33        34     9      180.000000       -0.001829         4
         8         7        31        32     9        0.000000        0.002002         1
         8         7        31        32     9      180.000000       15.125758         2
         8         7        31        32     9        0.000000       -0.008310         3
         8         7        31        32     9      180.000000       -0.003889         4
         8         7        31        33     9        0.000000       -0.004415         1
         8         7        31        33     9      180.000000       15.140685         2
         8         7        31        33     9        0.000000        0.014165         3
         8         7        31        33     9      180.000000       -0.000688         4
         8         9        10        11     9        0.000000        0.002001         1
         8         9        10        11     9      180.000000       15.125759         2
         8         9        10        11     9        0.000000       -0.008311         3
         8         9        10        11     9      180.000000       -0.003888         4
         8         9        10        12     9        0.000000       -0.004415         1
         8         9        10        12     9      180.000000       15.140683         2
         8         9        10        12     9        0.000000        0.014164         3
         8         9        10        12     9      180.000000       -0.000688         4
         8         9        18        16     9        0.000000       -0.004415         1
         8         9        18        16     9      180.000000       15.140689         2
         8         9        18        16     9        0.000000        0.014165         3
         8         9        18        16     9      180.000000       -0.000688         4
         8         9        18        19     9        0.000000        0.002001         1
         8         9        18        19     9      180.000000       15.125758         2
         8         9        18        19     9        0.000000       -0.008310         3
         8         9        18        19     9      180.000000       -0.003888         4
         8        20        21        22     9        0.000000        0.002001         1
         8        20        21        22     9      180.000000       15.125755         2
         8        20        21        22     9        0.000000       -0.008310         3
         8        20        21        22     9      180.000000       -0.003889         4
         8        20        21        23     9        0.000000       -0.004414         1
         8        20        21        23     9      180.000000       15.140688         2
         8        20        21        23     9        0.000000        0.014167         3
         8        20        21        23     9      180.000000       -0.000688         4
         8        20        29        27     9        0.000000       -0.004415         1
         8        20        29        27     9      180.000000       15.140683         2
         8        20        29        27     9        0.000000        0.014164         3
         8        20        29        27     9      180.000000       -0.000688         4
         8        20        29        30     9        0.000000        0.002001         1
         8        20        29        30     9      180.000000       15.125758         2
         8        20        29        30     9        0.000000       -0.008310         3
         8        20        29        30     9      180.000000       -0.003888         4
         9         8         7        31     9        0.000000        0.051003         1
         9         8         7        31     9      180.000000        2.775340         2
         9         8         7        31     9        0.000000        0.029731         3
         9         8         7        31     9      180.000000       -0.010481         4
         9         8        20        21     9        0.000000        0.051003         1
         9         8        20        21     9      180.000000        2.775347         2
         9         8        20        21     9        0.000000        0.029731         3
         9         8        20        21     9      180.000000       -0.010481         4
         9         8        20        29     9        0.000000        0.051002         1
         9         8        20        29     9      180.000000        2.775347         2
         9         8        20        29     9        0.000000        0.029731         3
         9         8        20        29     9      180.000000       -0.010480         4
         9        10        12        13     9        0.000000        0.001640         1
         9        10        12        13     9      180.000000       15.202492         2
         9        10        12        13     9        0.000000       -0.002948         3
         9        10        12        13     9      180.000000       -0.001827         4
         9        10        12        14     9        0.000000       -0.000768         1
         9        10        12        14     9      180.000000       15.146886         2
         9        10        12        14     9        0.000000        0.005701         3
         9        10        12        14     9      180.000000        0.000749         4
         9        18        16        14     9        0.000000       -0.000768         1
         9        18        16        14     9      180.000000       15.146886         2
         9        18        16        14     9        0.000000        0.005701         3
         9        18        16        14     9      180.000000        0.000749         4
         9        18        16        17     9        0.000000        0.001641         1
         9        18        16        17     9      180.000000       15.202494         2
         9        18        16        17     9        0.000000       -0.002951         3
         9        18        16        17     9      180.000000       -0.001828         4
        10         9         8        20     9        0.000000        0.051003         1
        10         9         8        20     9      180.000000        2.775350         2
        10         9         8        20     9        0.000000        0.029734         3
        10         9         8        20     9      180.000000       -0.010480         4
        10         9        18        16     9        0.000000        0.001407         1
        10         9        18        16     9      180.000000       15.170965         2
        10         9        18        16     9        0.000000        0.004721         3
        10         9        18        16     9      180.000000        0.000138         4
        10         9        18        19     9        0.000000       -0.000379         1
        10         9        18        19     9      180.000000       15.170452         2
        10         9        18        19     9        0.000000       -0.000183         3
        10         9        18        19     9      180.000000       -0.001651         4
        10        12        14        15     9        0.000000       -0.000132         1
        10        12        14        15     9      180.000000       15.147070         2
        10        12        14        15     9        0.000000       -0.000047         3
        10        12        14        15     9      180.000000       -0.001550         4
        10        12        14        16     9        0.000000       -0.000080         1
        10        12        14        16     9      180.000000       15.116903         2
        10        12        14        16     9        0.000000        0.002818         3
        10        12        14        16     9      180.000000        0.001242         4
        11        10         9        18     9        0.000000       -0.000381         1
        11        10         9        18     9      180.000000       15.170449         2
        11        10         9        18     9        0.000000       -0.000182         3
        11        10         9        18     9      180.000000       -0.001651         4
        11        10        12        13     9        0.000000        0.003791         1
        11        10        12        13     9      180.000000       15.166091         2
        11        10        12        13     9        0.000000       -0.005292         3
        11        10        12        13     9      180.000000        0.005837         4
        11        10        12        14     9        0.000000        0.000836         1
        11        10        12        14     9      180.000000       15.163369         2
        11        10        12        14     9        0.000000        0.000113         3
        11        10        12        14     9      180.000000       -0.000583         4
        12        10         9        18     9        0.000000        0.001408         1
        12        10         9        18     9      180.000000       15.170965         2
        12        10         9        18     9        0.000000        0.004721         3
        12        10         9        18     9      180.000000        0.000136         4
        12        14        16        17     9        0.000000        0.001559         1
        12        14        16        17     9      180.000000       15.164489         2
        12        14        16        17     9        0.000000       -0.000521         3
        12        14        16        17     9      180.000000       -0.001197         4
        12        14        16        18     9        0.000000       -0.000081         1
        12        14        16        18     9      180.000000       15.116903         2
        12        14        16        18     9        0.000000        0.002817         3
        12        14        16        18     9      180.000000        0.001242         4
        13        12        14        15     9        0.000000        0.004593         1
        13        12        14        15     9      180.000000       15.160613         2
        13        12        14        15     9        0.000000       -0.004723         3
        13        12        14        15     9      180.000000        0.005701         4
        13        12        14        16     9        0.000000        0.001558         1
        13        12        14        16     9      180.000000       15.164487         2
        13        12        14        16     9        0.000000       -0.000522         3
        13        12        14        16     9      180.000000       -0.001198         4
        14        16        18        19     9        0.000000        0.000836         1
        14        16        18        19     9      180.000000       15.163364         2
        14        16        18        19     9        0.000000        0.000115         3
        14        16        18        19     9      180.000000       -0.000582         4
        15        14        16        17     9        0.000000        0.004591         1
        15        14        16        17     9      180.000000       15.160619         2
        15        14        16        17     9        0.000000       -0.004724         3
        15        14        16        17     9      180.000000        0.005701         4
        15        14        16        18     9        0.000000       -0.000131         1
        15        14        16        18     9      180.000000       15.147074         2
        15        14        16        18     9        0.000000       -0.000049         3
        15        14        16        18     9      180.000000       -0.001551         4
        17        16        18        19     9        0.000000        0.003791         1
        17        16        18        19     9      180.000000       15.166090         2
        17        16        18        19     9        0.000000       -0.005290         3
        17        16        18        19     9      180.000000        0.005838         4
        18         9         8        20     9        0.000000        0.051003         1
        18         9         8        20     9      180.000000        2.775345         2
        18         9         8        20     9        0.000000        0.029734         3
        18         9         8        20     9      180.000000       -0.010481         4
        20         8         7        31     9        0.000000        0.051003         1
        20         8         7        31     9      180.000000        2.775342         2
        20         8         7        31     9        0.000000        0.029731         3
        20         8         7        31     9      180.000000       -0.010481         4
        20        21        23        24     9        0.000000        0.001640         1
        20        21        23        24     9      180.000000       15.202490         2
        20        21        23        24     9        0.000000       -0.002950         3
        20        21        23        24     9      180.000000       -0.001827         4
        20        21        23        25     9        0.000000       -0.000769         1
        20        21        23        25     9      180.000000       15.146886         2
        20        21        23        25     9        0.000000        0.005699         3
        20        21        23        25     9      180.000000        0.000749         4
        20        29        27        25     9        0.000000       -0.000768         1
        20        29        27        25     9      180.000000       15.146886         2
        20        29        27        25     9        0.000000        0.005702         3
        20        29        27        25     9      180.000000        0.000749         4
        20        29        27        28     9        0.000000        0.001639         1
        20        29        27        28     9      180.000000       15.202492         2
        20        29        27        28     9        0.000000       -0.002951         3
        20        29        27        28     9      180.000000       -0.001828         4
        21        20        29        27     9        0.000000        0.001408         1
        21        20        29        27     9      180.000000       15.170963         2
        21        20        29        27     9        0.000000        0.004721         3
        21        20        29        27     9      180.000000        0.000138         4
        21        20        29        30     9        0.000000       -0.000380         1
        21        20        29        30     9      180.000000       15.170453         2
        21        20        29        30     9        0.000000       -0.000181         3
        21        20        29        30     9      180.000000       -0.001651         4
        21        23        25        26     9        0.000000       -0.000132         1
        21        23        25        26     9      180.000000       15.147069         2
        21        23        25        26     9        0.000000       -0.000046         3
        21        23        25        26     9      180.000000       -0.001552         4
        21        23        25        27     9        0.000000       -0.000080         1
        21        23        25        27     9      180.000000       15.116900         2
        21        23        25        27     9        0.000000        0.002816         3
        21        23        25        27     9      180.000000        0.001242         4
        22        21        20        29     9        0.000000       -0.000379         1
        22        21        20        29     9      180.000000       15.170452         2
        22        21        20        29     9        0.000000       -0.000182         3
        22        21        20        29     9      180.000000       -0.001651         4
        22        21        23        24     9        0.000000        0.003792         1
        22        21        23        24     9      180.000000       15.166091         2
        22        21        23        24     9        0.000000       -0.005290         3
        22        21        23        24     9      180.000000        0.005838         4
        22        21        23        25     9        0.000000        0.000837         1
        22        21        23        25     9      180.000000       15.163364         2
        22        21        23        25     9        0.000000        0.000113         3
        22        21        23        25     9      180.000000       -0.000582         4
        23        21        20        29     9        0.000000        0.001408         1
        23        21        20        29     9      180.000000       15.170970         2
        23        21        20        29     9        0.000000        0.004722         3
        23        21        20        29     9      180.000000        0.000137         4
        23        25        27        28     9        0.000000        0.001558         1
        23        25        27        28     9      180.000000       15.164489         2
        23        25        27        28     9        0.000000       -0.000521         3
        23        25        27        28     9      180.000000       -0.001197         4
        23        25        27        29     9        0.000000       -0.000080         1
        23        25        27        29     9      180.000000       15.116902         2
        23        25        27        29     9        0.000000        0.002816         3
        23        25        27        29     9      180.000000        0.001241         4
        24        23        25        26     9        0.000000        0.004591         1
        24        23        25        26     9      180.000000       15.160613         2
        24        23        25        26     9        0.000000       -0.004724         3
        24        23        25        26     9      180.000000        0.005700         4
        24        23        25        27     9        0.000000        0.001559         1
        24        23        25        27     9      180.000000       15.164489         2
        24        23        25        27     9        0.000000       -0.000523         3
        24        23        25        27     9      180.000000       -0.001197         4
        25        27        29        30     9        0.000000        0.000834         1
        25        27        29        30     9      180.000000       15.163367         2
        25        27        29        30     9        0.000000        0.000114         3
        25        27        29        30     9      180.000000       -0.000581         4
        26        25        27        28     9        0.000000        0.004591         1
        26        25        27        28     9      180.000000       15.160614         2
        26        25        27        28     9        0.000000       -0.004725         3
        26        25        27        28     9      180.000000        0.005700         4
        26        25        27        29     9        0.000000       -0.000131         1
        26        25        27        29     9      180.000000       15.147074         2
        26        25        27        29     9        0.000000       -0.000048         3
        26        25        27        29     9      180.000000       -0.001551         4
        28        27        29        30     9        0.000000        0.003792         1
        28        27        29        30     9      180.000000       15.166091         2
        28        27        29        30     9        0.000000       -0.005291         3
        28        27        29        30     9      180.000000        0.005837         4
        32        31        33        34     9        0.000000        0.003792         1
        32        31        33        34     9      180.000000       15.166091         2
        32        31        33        34     9        0.000000       -0.005292         3
        32        31        33        34     9      180.000000        0.005837         4

[ pairs ]
;       ai        aj funct
         1         4     1
         1         5     1
         1        31     1
         1        34     1
         2         6     1
         2         7     1
         2        32     1
         3         8     1
         3        31     1
         3        34     1
         4         6     1
         4         7     1
         4        33     1
         5         9     1
         5        20     1
         5        32     1
         5        33     1
         6         8     1
         6        31     1
         7        10     1
         7        18     1
         7        21     1
         7        29     1
         7        34     1
         8        11     1
         8        12     1
         8        16     1
         8        19     1
         8        22     1
         8        23     1
         8        27     1
         8        30     1
         8        32     1
         8        33     1
         9        13     1
         9        14     1
         9        17     1
         9        21     1
         9        29     1
         9        31     1
        10        15     1
        10        16     1
        10        19     1
        10        20     1
        11        13     1
        11        14     1
        11        18     1
        12        17     1
        12        18     1
        13        15     1
        13        16     1
        14        19     1
        15        17     1
        15        18     1
        17        19     1
        18        20     1
        20        24     1
        20        25     1
        20        28     1
        20        31     1
        21        26     1
        21        27     1
        21        30     1
        22        24     1
        22        25     1
        22        29     1
        23        28     1
        23        29     1
        24        26     1
        24        27     1
        25        30     1
        26        28     1
        26        29     1
        28        30     1
        32        34     1
