A Gromacs structure file written by ASE 
    5
    1BF4      B    1   0.000  -0.003   0.000  0.0000  0.0000  0.0000
    1BF4      F    2  -0.109  -0.095  -0.007  0.0000  0.0000  0.0000
    1BF4      F    3   0.027   0.037   0.138  0.0000  0.0000  0.0000
    1BF4      F    4   0.121  -0.055  -0.059  0.0000  0.0000  0.0000
    1BF4      F    5  -0.039   0.116  -0.072  0.0000  0.0000  0.0000

