; ITP file created by ByteFF-ML, 2026-04-09 23:00:32.346362

[ moleculetype ]
;name             nrexcl
 BF4                   3

[ atoms ]
;       nr            type      resi   res      atom      cgnr      charge          mass ; qtot
         1            b0bf         1   UNL        b0         1     1.35660       10.8120 ; qtot    1.357
         2            f1bf         1   UNL        f1         2    -0.58915       18.9980 ; qtot    0.767
         3            f2bf         1   UNL        f2         3    -0.58915       18.9980 ; qtot    0.178
         4            f3bf         1   UNL        f3         4    -0.58915       18.9980 ; qtot   -0.411
         5            f4bf         1   UNL        f4         5    -0.58915       18.9980 ; qtot   -1.000

[ bonds ]
;       ai        aj funct               r               k
         1         2     1        0.141349   170773.660327
         1         3     1        0.141349   170773.660327
         1         4     1        0.141349   170773.647559
         1         5     1        0.141349   170773.673096

[ angles ]
;       ai        aj        ak funct           theta             cth
         2         1         3     1      109.887772      504.848286
         2         1         4     1      109.887772      504.848318
         2         1         5     1      109.887772      504.848095
         3         1         4     1      109.887772      504.848318
         3         1         5     1      109.887772      504.848127
         4         1         5     1      109.887772      504.848223
