; ITP file created by ByteFF-ML, 2026-04-09 23:00:50.940588

[ moleculetype ]
;name             nrexcl
 TMSPa                 3

[ atoms ]
;       nr            type      resi   res      atom      cgnr      charge          mass ; qtot
         1            c0bf         1   UNL        c0         1    -0.60774       12.0110 ; qtot   -0.608
         2           si1bf         1   UNL       si1         2     1.26178       28.0860 ; qtot    0.654
         3            c2bf         1   UNL        c2         3    -0.60774       12.0110 ; qtot    0.046
         4            c3bf         1   UNL        c3         4    -0.60774       12.0110 ; qtot   -0.561
         5            o4bf         1   UNL        o4         5    -0.63407       15.9990 ; qtot   -1.196
         6            p5bf         1   UNL        p5         6     1.09361       30.9740 ; qtot   -0.102
         7            o6bf         1   UNL        o6         7    -0.86867       15.9990 ; qtot   -0.971
         8            o7bf         1   UNL        o7         8    -0.63407       15.9990 ; qtot   -1.605
         9           si8bf         1   UNL       si8         9     1.26178       28.0860 ; qtot   -0.343
        10            c9bf         1   UNL        c9        10    -0.60774       12.0110 ; qtot   -0.951
        11           c10bf         1   UNL       c10        11    -0.60774       12.0110 ; qtot   -1.558
        12           c11bf         1   UNL       c11        12    -0.60774       12.0110 ; qtot   -2.166
        13           o12bf         1   UNL       o12        13    -0.63407       15.9990 ; qtot   -2.800
        14          si13bf         1   UNL      si13        14     1.26178       28.0860 ; qtot   -1.538
        15           c14bf         1   UNL       c14        15    -0.60774       12.0110 ; qtot   -2.146
        16           c15bf         1   UNL       c15        16    -0.60774       12.0110 ; qtot   -2.754
        17           c16bf         1   UNL       c16        17    -0.60774       12.0110 ; qtot   -3.362
        18           h17bf         1   UNL       h17        18     0.12451        1.0080 ; qtot   -3.237
        19           h18bf         1   UNL       h18        19     0.12451        1.0080 ; qtot   -3.113
        20           h19bf         1   UNL       h19        20     0.12451        1.0080 ; qtot   -2.988
        21           h20bf         1   UNL       h20        21     0.12451        1.0080 ; qtot   -2.864
        22           h21bf         1   UNL       h21        22     0.12451        1.0080 ; qtot   -2.739
        23           h22bf         1   UNL       h22        23     0.12451        1.0080 ; qtot   -2.615
        24           h23bf         1   UNL       h23        24     0.12451        1.0080 ; qtot   -2.490
        25           h24bf         1   UNL       h24        25     0.12451        1.0080 ; qtot   -2.366
        26           h25bf         1   UNL       h25        26     0.12451        1.0080 ; qtot   -2.241
        27           h26bf         1   UNL       h26        27     0.12451        1.0080 ; qtot   -2.116
        28           h27bf         1   UNL       h27        28     0.12451        1.0080 ; qtot   -1.992
        29           h28bf         1   UNL       h28        29     0.12451        1.0080 ; qtot   -1.867
        30           h29bf         1   UNL       h29        30     0.12451        1.0080 ; qtot   -1.743
        31           h30bf         1   UNL       h30        31     0.12451        1.0080 ; qtot   -1.618
        32           h31bf         1   UNL       h31        32     0.12451        1.0080 ; qtot   -1.494
        33           h32bf         1   UNL       h32        33     0.12451        1.0080 ; qtot   -1.369
        34           h33bf         1   UNL       h33        34     0.12451        1.0080 ; qtot   -1.245
        35           h34bf         1   UNL       h34        35     0.12451        1.0080 ; qtot   -1.120
        36           h35bf         1   UNL       h35        36     0.12451        1.0080 ; qtot   -0.996
        37           h36bf         1   UNL       h36        37     0.12451        1.0080 ; qtot   -0.871
        38           h37bf         1   UNL       h37        38     0.12451        1.0080 ; qtot   -0.747
        39           h38bf         1   UNL       h38        39     0.12451        1.0080 ; qtot   -0.622
        40           h39bf         1   UNL       h39        40     0.12451        1.0080 ; qtot   -0.498
        41           h40bf         1   UNL       h40        41     0.12451        1.0080 ; qtot   -0.373
        42           h41bf         1   UNL       h41        42     0.12451        1.0080 ; qtot   -0.249
        43           h42bf         1   UNL       h42        43     0.12451        1.0080 ; qtot   -0.124
        44           h43bf         1   UNL       h43        44     0.12433        1.0080 ; qtot   -0.000

[ bonds ]
;       ai        aj funct               r               k
         1         2     1        0.186997   163218.608667
         1        18     1        0.109567   307145.616650
         1        19     1        0.109567   307145.616650
         1        20     1        0.109567   307145.616650
         2         3     1        0.186997   163218.608667
         2         4     1        0.186997   163218.608667
         2         5     1        0.171802   154605.643945
         3        21     1        0.109567   307145.616650
         3        22     1        0.109567   307145.616650
         3        23     1        0.109567   307145.565576
         4        24     1        0.109567   307145.565576
         4        25     1        0.109567   307145.565576
         4        26     1        0.109567   307145.565576
         5         6     1        0.159183   250533.905566
         6         7     1        0.148227   565632.978320
         6         8     1        0.159183   250533.956641
         6        13     1        0.159183   250533.956641
         8         9     1        0.171802   154605.567334
         9        10     1        0.186997   163218.595898
         9        11     1        0.186997   163218.595898
         9        12     1        0.186997   163218.595898
        10        27     1        0.109567   307145.591113
        10        28     1        0.109567   307145.591113
        10        29     1        0.109567   307145.591113
        11        30     1        0.109567   307145.591113
        11        31     1        0.109567   307145.591113
        11        32     1        0.109567   307145.591113
        12        33     1        0.109567   307145.591113
        12        34     1        0.109567   307145.565576
        12        35     1        0.109567   307145.565576
        13        14     1        0.171802   154605.592871
        14        15     1        0.186997   163218.634204
        14        16     1        0.186997   163218.634204
        14        17     1        0.186997   163218.519287
        15        36     1        0.109567   307145.565576
        15        37     1        0.109567   307145.565576
        15        38     1        0.109567   307145.565576
        16        39     1        0.109567   307145.565576
        16        40     1        0.109567   307145.565576
        16        41     1        0.109567   307145.565576
        17        42     1        0.109567   307145.565576
        17        43     1        0.109567   307145.565576
        17        44     1        0.109567   307145.565576

[ angles ]
;       ai        aj        ak funct           theta             cth
         1         2         3     1      112.581741      624.614329
         1         2         4     1      112.581741      624.614329
         1         2         5     1      106.134613      458.447231
         2         1        18     1      110.887512      435.846315
         2         1        19     1      110.887512      435.846315
         2         1        20     1      110.887512      435.846315
         2         3        21     1      110.887512      435.846315
         2         3        22     1      110.887512      435.846315
         2         3        23     1      110.887512      435.846219
         2         4        24     1      110.887512      435.846219
         2         4        25     1      110.887512      435.846219
         2         4        26     1      110.887512      435.846219
         2         5         6     1      131.309235      401.409108
         3         2         4     1      112.581741      624.614329
         3         2         5     1      106.134613      458.447231
         4         2         5     1      106.134613      458.447231
         5         6         7     1      115.265121      565.142998
         5         6         8     1      104.105934      543.292809
         5         6        13     1      104.105934      543.292809
         6         8         9     1      131.309250      401.408693
         6        13        14     1      131.309250      401.408693
         7         6         8     1      115.265121      565.142998
         7         6        13     1      115.265121      565.142998
         8         6        13     1      104.105934      543.293255
         8         9        10     1      106.134613      458.447486
         8         9        11     1      106.134613      458.447486
         8         9        12     1      106.134613      458.447486
         9        10        27     1      110.887512      435.846251
         9        10        28     1      110.887512      435.846251
         9        10        29     1      110.887512      435.846251
         9        11        30     1      110.887512      435.846251
         9        11        31     1      110.887512      435.846251
         9        11        32     1      110.887512      435.846251
         9        12        33     1      110.887512      435.846251
         9        12        34     1      110.887512      435.846219
         9        12        35     1      110.887512      435.846219
        10         9        11     1      112.581741      624.614520
        10         9        12     1      112.581741      624.614520
        11         9        12     1      112.581741      624.614520
        13        14        15     1      106.134613      458.447486
        13        14        16     1      106.134613      458.447486
        13        14        17     1      106.134613      458.447486
        14        15        36     1      110.887512      435.846219
        14        15        37     1      110.887512      435.846219
        14        15        38     1      110.887512      435.846219
        14        16        39     1      110.887512      435.846219
        14        16        40     1      110.887512      435.846219
        14        16        41     1      110.887512      435.846219
        14        17        42     1      110.887512      435.846219
        14        17        43     1      110.887512      435.846219
        14        17        44     1      110.887512      435.846219
        15        14        16     1      112.581741      624.614520
        15        14        17     1      112.581741      624.614520
        16        14        17     1      112.581741      624.614520
        18         1        19     1      107.982117      374.342357
        18         1        20     1      107.982117      374.342357
        19         1        20     1      107.982117      374.342357
        21         3        22     1      107.982117      374.342357
        21         3        23     1      107.982117      374.342357
        22         3        23     1      107.982117      374.342357
        24         4        25     1      107.982117      374.342326
        24         4        26     1      107.982117      374.342326
        25         4        26     1      107.982117      374.342326
        27        10        28     1      107.982117      374.342357
        27        10        29     1      107.982117      374.342357
        28        10        29     1      107.982117      374.342357
        30        11        31     1      107.982117      374.342357
        30        11        32     1      107.982117      374.342357
        31        11        32     1      107.982117      374.342357
        33        12        34     1      107.982117      374.342294
        33        12        35     1      107.982117      374.342294
        34        12        35     1      107.982117      374.342326
        36        15        37     1      107.982117      374.342326
        36        15        38     1      107.982117      374.342326
        37        15        38     1      107.982117      374.342326
        39        16        40     1      107.982117      374.342326
        39        16        41     1      107.982117      374.342326
        40        16        41     1      107.982117      374.342326
        42        17        43     1      107.982117      374.342326
        42        17        44     1      107.982117      374.342326
        43        17        44     1      107.982117      374.342326

[ dihedrals ] ; propers for gromacs 4.5 or higher, use funct 9
;       ai        aj        ak        al funct           phase               k        pn
         1         2         3        21     9        0.000000        0.006603         1
         1         2         3        21     9      180.000000        0.001038         2
         1         2         3        21     9        0.000000        0.538933         3
         1         2         3        21     9      180.000000       -0.002050         4
         1         2         3        22     9        0.000000        0.006603         1
         1         2         3        22     9      180.000000        0.001038         2
         1         2         3        22     9        0.000000        0.538933         3
         1         2         3        22     9      180.000000       -0.002050         4
         1         2         3        23     9        0.000000        0.006604         1
         1         2         3        23     9      180.000000        0.001039         2
         1         2         3        23     9        0.000000        0.538933         3
         1         2         3        23     9      180.000000       -0.002049         4
         1         2         4        24     9        0.000000        0.006604         1
         1         2         4        24     9      180.000000        0.001039         2
         1         2         4        24     9        0.000000        0.538933         3
         1         2         4        24     9      180.000000       -0.002049         4
         1         2         4        25     9        0.000000        0.006604         1
         1         2         4        25     9      180.000000        0.001039         2
         1         2         4        25     9        0.000000        0.538933         3
         1         2         4        25     9      180.000000       -0.002049         4
         1         2         4        26     9        0.000000        0.006604         1
         1         2         4        26     9      180.000000        0.001039         2
         1         2         4        26     9        0.000000        0.538933         3
         1         2         4        26     9      180.000000       -0.002049         4
         1         2         5         6     9        0.000000      -16.095555         1
         1         2         5         6     9      180.000000       -0.256515         2
         1         2         5         6     9        0.000000        1.813898         3
         1         2         5         6     9      180.000000       -0.003220         4
         2         5         6         7     9        0.000000       -0.112236         1
         2         5         6         7     9      180.000000       -2.072066         2
         2         5         6         7     9        0.000000        0.018486         3
         2         5         6         7     9      180.000000       -0.004017         4
         2         5         6         8     9        0.000000       -0.045391         1
         2         5         6         8     9      180.000000       -3.351003         2
         2         5         6         8     9        0.000000       -0.323142         3
         2         5         6         8     9      180.000000       -0.004218         4
         2         5         6        13     9        0.000000       -0.045391         1
         2         5         6        13     9      180.000000       -3.351003         2
         2         5         6        13     9        0.000000       -0.323142         3
         2         5         6        13     9      180.000000       -0.004218         4
         3         2         1        18     9        0.000000        0.006603         1
         3         2         1        18     9      180.000000        0.001038         2
         3         2         1        18     9        0.000000        0.538933         3
         3         2         1        18     9      180.000000       -0.002050         4
         3         2         1        19     9        0.000000        0.006603         1
         3         2         1        19     9      180.000000        0.001038         2
         3         2         1        19     9        0.000000        0.538933         3
         3         2         1        19     9      180.000000       -0.002050         4
         3         2         1        20     9        0.000000        0.006603         1
         3         2         1        20     9      180.000000        0.001038         2
         3         2         1        20     9        0.000000        0.538933         3
         3         2         1        20     9      180.000000       -0.002050         4
         3         2         4        24     9        0.000000        0.006604         1
         3         2         4        24     9      180.000000        0.001039         2
         3         2         4        24     9        0.000000        0.538933         3
         3         2         4        24     9      180.000000       -0.002049         4
         3         2         4        25     9        0.000000        0.006604         1
         3         2         4        25     9      180.000000        0.001039         2
         3         2         4        25     9        0.000000        0.538933         3
         3         2         4        25     9      180.000000       -0.002049         4
         3         2         4        26     9        0.000000        0.006604         1
         3         2         4        26     9      180.000000        0.001039         2
         3         2         4        26     9        0.000000        0.538933         3
         3         2         4        26     9      180.000000       -0.002049         4
         3         2         5         6     9        0.000000      -16.095555         1
         3         2         5         6     9      180.000000       -0.256515         2
         3         2         5         6     9        0.000000        1.813898         3
         3         2         5         6     9      180.000000       -0.003220         4
         4         2         1        18     9        0.000000        0.006603         1
         4         2         1        18     9      180.000000        0.001038         2
         4         2         1        18     9        0.000000        0.538933         3
         4         2         1        18     9      180.000000       -0.002050         4
         4         2         1        19     9        0.000000        0.006603         1
         4         2         1        19     9      180.000000        0.001038         2
         4         2         1        19     9        0.000000        0.538933         3
         4         2         1        19     9      180.000000       -0.002050         4
         4         2         1        20     9        0.000000        0.006603         1
         4         2         1        20     9      180.000000        0.001038         2
         4         2         1        20     9        0.000000        0.538933         3
         4         2         1        20     9      180.000000       -0.002050         4
         4         2         3        21     9        0.000000        0.006603         1
         4         2         3        21     9      180.000000        0.001038         2
         4         2         3        21     9        0.000000        0.538933         3
         4         2         3        21     9      180.000000       -0.002050         4
         4         2         3        22     9        0.000000        0.006603         1
         4         2         3        22     9      180.000000        0.001038         2
         4         2         3        22     9        0.000000        0.538933         3
         4         2         3        22     9      180.000000       -0.002050         4
         4         2         3        23     9        0.000000        0.006604         1
         4         2         3        23     9      180.000000        0.001039         2
         4         2         3        23     9        0.000000        0.538933         3
         4         2         3        23     9      180.000000       -0.002049         4
         4         2         5         6     9        0.000000      -16.095555         1
         4         2         5         6     9      180.000000       -0.256515         2
         4         2         5         6     9        0.000000        1.813898         3
         4         2         5         6     9      180.000000       -0.003220         4
         5         2         1        18     9        0.000000        0.873861         1
         5         2         1        18     9      180.000000        0.042998         2
         5         2         1        18     9        0.000000        0.057023         3
         5         2         1        18     9      180.000000       -0.000155         4
         5         2         1        19     9        0.000000        0.873861         1
         5         2         1        19     9      180.000000        0.042998         2
         5         2         1        19     9        0.000000        0.057023         3
         5         2         1        19     9      180.000000       -0.000155         4
         5         2         1        20     9        0.000000        0.873861         1
         5         2         1        20     9      180.000000        0.042998         2
         5         2         1        20     9        0.000000        0.057023         3
         5         2         1        20     9      180.000000       -0.000155         4
         5         2         3        21     9        0.000000        0.873861         1
         5         2         3        21     9      180.000000        0.042998         2
         5         2         3        21     9        0.000000        0.057023         3
         5         2         3        21     9      180.000000       -0.000155         4
         5         2         3        22     9        0.000000        0.873861         1
         5         2         3        22     9      180.000000        0.042998         2
         5         2         3        22     9        0.000000        0.057023         3
         5         2         3        22     9      180.000000       -0.000155         4
         5         2         3        23     9        0.000000        0.873862         1
         5         2         3        23     9      180.000000        0.042998         2
         5         2         3        23     9        0.000000        0.057021         3
         5         2         3        23     9      180.000000       -0.000155         4
         5         2         4        24     9        0.000000        0.873862         1
         5         2         4        24     9      180.000000        0.042998         2
         5         2         4        24     9        0.000000        0.057021         3
         5         2         4        24     9      180.000000       -0.000155         4
         5         2         4        25     9        0.000000        0.873862         1
         5         2         4        25     9      180.000000        0.042998         2
         5         2         4        25     9        0.000000        0.057021         3
         5         2         4        25     9      180.000000       -0.000155         4
         5         2         4        26     9        0.000000        0.873862         1
         5         2         4        26     9      180.000000        0.042998         2
         5         2         4        26     9        0.000000        0.057021         3
         5         2         4        26     9      180.000000       -0.000155         4
         5         6         8         9     9        0.000000       -0.045389         1
         5         6         8         9     9      180.000000       -3.351001         2
         5         6         8         9     9        0.000000       -0.323146         3
         5         6         8         9     9      180.000000       -0.004219         4
         5         6        13        14     9        0.000000       -0.045389         1
         5         6        13        14     9      180.000000       -3.351001         2
         5         6        13        14     9        0.000000       -0.323146         3
         5         6        13        14     9      180.000000       -0.004219         4
         6         8         9        10     9        0.000000      -16.095559         1
         6         8         9        10     9      180.000000       -0.256497         2
         6         8         9        10     9        0.000000        1.813895         3
         6         8         9        10     9      180.000000       -0.003223         4
         6         8         9        11     9        0.000000      -16.095559         1
         6         8         9        11     9      180.000000       -0.256497         2
         6         8         9        11     9        0.000000        1.813895         3
         6         8         9        11     9      180.000000       -0.003223         4
         6         8         9        12     9        0.000000      -16.095559         1
         6         8         9        12     9      180.000000       -0.256497         2
         6         8         9        12     9        0.000000        1.813895         3
         6         8         9        12     9      180.000000       -0.003223         4
         6        13        14        15     9        0.000000      -16.095559         1
         6        13        14        15     9      180.000000       -0.256497         2
         6        13        14        15     9        0.000000        1.813895         3
         6        13        14        15     9      180.000000       -0.003223         4
         6        13        14        16     9        0.000000      -16.095559         1
         6        13        14        16     9      180.000000       -0.256497         2
         6        13        14        16     9        0.000000        1.813895         3
         6        13        14        16     9      180.000000       -0.003223         4
         6        13        14        17     9        0.000000      -16.095559         1
         6        13        14        17     9      180.000000       -0.256497         2
         6        13        14        17     9        0.000000        1.813895         3
         6        13        14        17     9      180.000000       -0.003223         4
         7         6         8         9     9        0.000000       -0.112239         1
         7         6         8         9     9      180.000000       -2.072075         2
         7         6         8         9     9        0.000000        0.018489         3
         7         6         8         9     9      180.000000       -0.004017         4
         7         6        13        14     9        0.000000       -0.112239         1
         7         6        13        14     9      180.000000       -2.072075         2
         7         6        13        14     9        0.000000        0.018489         3
         7         6        13        14     9      180.000000       -0.004017         4
         8         6        13        14     9        0.000000       -0.045389         1
         8         6        13        14     9      180.000000       -3.351007         2
         8         6        13        14     9        0.000000       -0.323148         3
         8         6        13        14     9      180.000000       -0.004220         4
         8         9        10        27     9        0.000000        0.873860         1
         8         9        10        27     9      180.000000        0.042998         2
         8         9        10        27     9        0.000000        0.057024         3
         8         9        10        27     9      180.000000       -0.000154         4
         8         9        10        28     9        0.000000        0.873860         1
         8         9        10        28     9      180.000000        0.042998         2
         8         9        10        28     9        0.000000        0.057024         3
         8         9        10        28     9      180.000000       -0.000154         4
         8         9        10        29     9        0.000000        0.873860         1
         8         9        10        29     9      180.000000        0.042998         2
         8         9        10        29     9        0.000000        0.057024         3
         8         9        10        29     9      180.000000       -0.000154         4
         8         9        11        30     9        0.000000        0.873860         1
         8         9        11        30     9      180.000000        0.042998         2
         8         9        11        30     9        0.000000        0.057024         3
         8         9        11        30     9      180.000000       -0.000154         4
         8         9        11        31     9        0.000000        0.873860         1
         8         9        11        31     9      180.000000        0.042998         2
         8         9        11        31     9        0.000000        0.057024         3
         8         9        11        31     9      180.000000       -0.000154         4
         8         9        11        32     9        0.000000        0.873860         1
         8         9        11        32     9      180.000000        0.042998         2
         8         9        11        32     9        0.000000        0.057024         3
         8         9        11        32     9      180.000000       -0.000154         4
         8         9        12        33     9        0.000000        0.873860         1
         8         9        12        33     9      180.000000        0.042998         2
         8         9        12        33     9        0.000000        0.057024         3
         8         9        12        33     9      180.000000       -0.000154         4
         8         9        12        34     9        0.000000        0.873860         1
         8         9        12        34     9      180.000000        0.042998         2
         8         9        12        34     9        0.000000        0.057021         3
         8         9        12        34     9      180.000000       -0.000154         4
         8         9        12        35     9        0.000000        0.873860         1
         8         9        12        35     9      180.000000        0.042998         2
         8         9        12        35     9        0.000000        0.057021         3
         8         9        12        35     9      180.000000       -0.000154         4
         9         8         6        13     9        0.000000       -0.045389         1
         9         8         6        13     9      180.000000       -3.351007         2
         9         8         6        13     9        0.000000       -0.323148         3
         9         8         6        13     9      180.000000       -0.004220         4
        10         9        11        30     9        0.000000        0.006604         1
        10         9        11        30     9      180.000000        0.001039         2
        10         9        11        30     9        0.000000        0.538934         3
        10         9        11        30     9      180.000000       -0.002049         4
        10         9        11        31     9        0.000000        0.006604         1
        10         9        11        31     9      180.000000        0.001039         2
        10         9        11        31     9        0.000000        0.538934         3
        10         9        11        31     9      180.000000       -0.002049         4
        10         9        11        32     9        0.000000        0.006604         1
        10         9        11        32     9      180.000000        0.001039         2
        10         9        11        32     9        0.000000        0.538934         3
        10         9        11        32     9      180.000000       -0.002049         4
        10         9        12        33     9        0.000000        0.006604         1
        10         9        12        33     9      180.000000        0.001039         2
        10         9        12        33     9        0.000000        0.538934         3
        10         9        12        33     9      180.000000       -0.002049         4
        10         9        12        34     9        0.000000        0.006604         1
        10         9        12        34     9      180.000000        0.001039         2
        10         9        12        34     9        0.000000        0.538934         3
        10         9        12        34     9      180.000000       -0.002050         4
        10         9        12        35     9        0.000000        0.006604         1
        10         9        12        35     9      180.000000        0.001039         2
        10         9        12        35     9        0.000000        0.538934         3
        10         9        12        35     9      180.000000       -0.002050         4
        11         9        10        27     9        0.000000        0.006604         1
        11         9        10        27     9      180.000000        0.001039         2
        11         9        10        27     9        0.000000        0.538934         3
        11         9        10        27     9      180.000000       -0.002049         4
        11         9        10        28     9        0.000000        0.006604         1
        11         9        10        28     9      180.000000        0.001039         2
        11         9        10        28     9        0.000000        0.538934         3
        11         9        10        28     9      180.000000       -0.002049         4
        11         9        10        29     9        0.000000        0.006604         1
        11         9        10        29     9      180.000000        0.001039         2
        11         9        10        29     9        0.000000        0.538934         3
        11         9        10        29     9      180.000000       -0.002049         4
        11         9        12        33     9        0.000000        0.006604         1
        11         9        12        33     9      180.000000        0.001039         2
        11         9        12        33     9        0.000000        0.538934         3
        11         9        12        33     9      180.000000       -0.002049         4
        11         9        12        34     9        0.000000        0.006604         1
        11         9        12        34     9      180.000000        0.001039         2
        11         9        12        34     9        0.000000        0.538934         3
        11         9        12        34     9      180.000000       -0.002050         4
        11         9        12        35     9        0.000000        0.006604         1
        11         9        12        35     9      180.000000        0.001039         2
        11         9        12        35     9        0.000000        0.538934         3
        11         9        12        35     9      180.000000       -0.002050         4
        12         9        10        27     9        0.000000        0.006604         1
        12         9        10        27     9      180.000000        0.001039         2
        12         9        10        27     9        0.000000        0.538934         3
        12         9        10        27     9      180.000000       -0.002049         4
        12         9        10        28     9        0.000000        0.006604         1
        12         9        10        28     9      180.000000        0.001039         2
        12         9        10        28     9        0.000000        0.538934         3
        12         9        10        28     9      180.000000       -0.002049         4
        12         9        10        29     9        0.000000        0.006604         1
        12         9        10        29     9      180.000000        0.001039         2
        12         9        10        29     9        0.000000        0.538934         3
        12         9        10        29     9      180.000000       -0.002049         4
        12         9        11        30     9        0.000000        0.006604         1
        12         9        11        30     9      180.000000        0.001039         2
        12         9        11        30     9        0.000000        0.538934         3
        12         9        11        30     9      180.000000       -0.002049         4
        12         9        11        31     9        0.000000        0.006604         1
        12         9        11        31     9      180.000000        0.001039         2
        12         9        11        31     9        0.000000        0.538934         3
        12         9        11        31     9      180.000000       -0.002049         4
        12         9        11        32     9        0.000000        0.006604         1
        12         9        11        32     9      180.000000        0.001039         2
        12         9        11        32     9        0.000000        0.538934         3
        12         9        11        32     9      180.000000       -0.002049         4
        13        14        15        36     9        0.000000        0.873860         1
        13        14        15        36     9      180.000000        0.042998         2
        13        14        15        36     9        0.000000        0.057021         3
        13        14        15        36     9      180.000000       -0.000154         4
        13        14        15        37     9        0.000000        0.873860         1
        13        14        15        37     9      180.000000        0.042998         2
        13        14        15        37     9        0.000000        0.057021         3
        13        14        15        37     9      180.000000       -0.000154         4
        13        14        15        38     9        0.000000        0.873860         1
        13        14        15        38     9      180.000000        0.042998         2
        13        14        15        38     9        0.000000        0.057021         3
        13        14        15        38     9      180.000000       -0.000154         4
        13        14        16        39     9        0.000000        0.873860         1
        13        14        16        39     9      180.000000        0.042998         2
        13        14        16        39     9        0.000000        0.057021         3
        13        14        16        39     9      180.000000       -0.000154         4
        13        14        16        40     9        0.000000        0.873860         1
        13        14        16        40     9      180.000000        0.042998         2
        13        14        16        40     9        0.000000        0.057021         3
        13        14        16        40     9      180.000000       -0.000154         4
        13        14        16        41     9        0.000000        0.873860         1
        13        14        16        41     9      180.000000        0.042998         2
        13        14        16        41     9        0.000000        0.057021         3
        13        14        16        41     9      180.000000       -0.000154         4
        13        14        17        42     9        0.000000        0.873860         1
        13        14        17        42     9      180.000000        0.042998         2
        13        14        17        42     9        0.000000        0.057021         3
        13        14        17        42     9      180.000000       -0.000154         4
        13        14        17        43     9        0.000000        0.873860         1
        13        14        17        43     9      180.000000        0.042998         2
        13        14        17        43     9        0.000000        0.057021         3
        13        14        17        43     9      180.000000       -0.000154         4
        13        14        17        44     9        0.000000        0.873860         1
        13        14        17        44     9      180.000000        0.042998         2
        13        14        17        44     9        0.000000        0.057021         3
        13        14        17        44     9      180.000000       -0.000154         4
        15        14        16        39     9        0.000000        0.006604         1
        15        14        16        39     9      180.000000        0.001039         2
        15        14        16        39     9        0.000000        0.538934         3
        15        14        16        39     9      180.000000       -0.002050         4
        15        14        16        40     9        0.000000        0.006604         1
        15        14        16        40     9      180.000000        0.001039         2
        15        14        16        40     9        0.000000        0.538934         3
        15        14        16        40     9      180.000000       -0.002050         4
        15        14        16        41     9        0.000000        0.006604         1
        15        14        16        41     9      180.000000        0.001039         2
        15        14        16        41     9        0.000000        0.538934         3
        15        14        16        41     9      180.000000       -0.002050         4
        15        14        17        42     9        0.000000        0.006604         1
        15        14        17        42     9      180.000000        0.001039         2
        15        14        17        42     9        0.000000        0.538934         3
        15        14        17        42     9      180.000000       -0.002050         4
        15        14        17        43     9        0.000000        0.006604         1
        15        14        17        43     9      180.000000        0.001039         2
        15        14        17        43     9        0.000000        0.538934         3
        15        14        17        43     9      180.000000       -0.002050         4
        15        14        17        44     9        0.000000        0.006604         1
        15        14        17        44     9      180.000000        0.001039         2
        15        14        17        44     9        0.000000        0.538934         3
        15        14        17        44     9      180.000000       -0.002050         4
        16        14        15        36     9        0.000000        0.006604         1
        16        14        15        36     9      180.000000        0.001039         2
        16        14        15        36     9        0.000000        0.538934         3
        16        14        15        36     9      180.000000       -0.002050         4
        16        14        15        37     9        0.000000        0.006604         1
        16        14        15        37     9      180.000000        0.001039         2
        16        14        15        37     9        0.000000        0.538934         3
        16        14        15        37     9      180.000000       -0.002050         4
        16        14        15        38     9        0.000000        0.006604         1
        16        14        15        38     9      180.000000        0.001039         2
        16        14        15        38     9        0.000000        0.538934         3
        16        14        15        38     9      180.000000       -0.002050         4
        16        14        17        42     9        0.000000        0.006604         1
        16        14        17        42     9      180.000000        0.001039         2
        16        14        17        42     9        0.000000        0.538934         3
        16        14        17        42     9      180.000000       -0.002050         4
        16        14        17        43     9        0.000000        0.006604         1
        16        14        17        43     9      180.000000        0.001039         2
        16        14        17        43     9        0.000000        0.538934         3
        16        14        17        43     9      180.000000       -0.002050         4
        16        14        17        44     9        0.000000        0.006604         1
        16        14        17        44     9      180.000000        0.001039         2
        16        14        17        44     9        0.000000        0.538934         3
        16        14        17        44     9      180.000000       -0.002050         4
        17        14        15        36     9        0.000000        0.006604         1
        17        14        15        36     9      180.000000        0.001039         2
        17        14        15        36     9        0.000000        0.538934         3
        17        14        15        36     9      180.000000       -0.002050         4
        17        14        15        37     9        0.000000        0.006604         1
        17        14        15        37     9      180.000000        0.001039         2
        17        14        15        37     9        0.000000        0.538934         3
        17        14        15        37     9      180.000000       -0.002050         4
        17        14        15        38     9        0.000000        0.006604         1
        17        14        15        38     9      180.000000        0.001039         2
        17        14        15        38     9        0.000000        0.538934         3
        17        14        15        38     9      180.000000       -0.002050         4
        17        14        16        39     9        0.000000        0.006604         1
        17        14        16        39     9      180.000000        0.001039         2
        17        14        16        39     9        0.000000        0.538934         3
        17        14        16        39     9      180.000000       -0.002050         4
        17        14        16        40     9        0.000000        0.006604         1
        17        14        16        40     9      180.000000        0.001039         2
        17        14        16        40     9        0.000000        0.538934         3
        17        14        16        40     9      180.000000       -0.002050         4
        17        14        16        41     9        0.000000        0.006604         1
        17        14        16        41     9      180.000000        0.001039         2
        17        14        16        41     9        0.000000        0.538934         3
        17        14        16        41     9      180.000000       -0.002050         4

[ pairs ]
;       ai        aj funct
         1         6     1
         1        21     1
         1        22     1
         1        23     1
         1        24     1
         1        25     1
         1        26     1
         2         7     1
         2         8     1
         2        13     1
         3         6     1
         3        18     1
         3        19     1
         3        20     1
         3        24     1
         3        25     1
         3        26     1
         4         6     1
         4        18     1
         4        19     1
         4        20     1
         4        21     1
         4        22     1
         4        23     1
         5         9     1
         5        14     1
         5        18     1
         5        19     1
         5        20     1
         5        21     1
         5        22     1
         5        23     1
         5        24     1
         5        25     1
         5        26     1
         6        10     1
         6        11     1
         6        12     1
         6        15     1
         6        16     1
         6        17     1
         7         9     1
         7        14     1
         8        14     1
         8        27     1
         8        28     1
         8        29     1
         8        30     1
         8        31     1
         8        32     1
         8        33     1
         8        34     1
         8        35     1
         9        13     1
        10        30     1
        10        31     1
        10        32     1
        10        33     1
        10        34     1
        10        35     1
        11        27     1
        11        28     1
        11        29     1
        11        33     1
        11        34     1
        11        35     1
        12        27     1
        12        28     1
        12        29     1
        12        30     1
        12        31     1
        12        32     1
        13        36     1
        13        37     1
        13        38     1
        13        39     1
        13        40     1
        13        41     1
        13        42     1
        13        43     1
        13        44     1
        15        39     1
        15        40     1
        15        41     1
        15        42     1
        15        43     1
        15        44     1
        16        36     1
        16        37     1
        16        38     1
        16        42     1
        16        43     1
        16        44     1
        17        36     1
        17        37     1
        17        38     1
        17        39     1
        17        40     1
        17        41     1
