A Gromacs structure file written by ASE 
   44
    1TMSPa    C    1   0.310  -0.082  -0.089  0.0000  0.0000  0.0000
    1TMSPa   Si    2   0.172  -0.208  -0.068  0.0000  0.0000  0.0000
    1TMSPa    C    3   0.249  -0.363   0.007  0.0000  0.0000  0.0000
    1TMSPa    C    4   0.108  -0.255  -0.238  0.0000  0.0000  0.0000
    1TMSPa    O    5   0.048  -0.156   0.030  0.0000  0.0000  0.0000
    1TMSPa    P    6   0.001  -0.003   0.011  0.0000  0.0000  0.0000
    1TMSPa    O    7  -0.018   0.042  -0.131  0.0000  0.0000  0.0000
    1TMSPa    O    8  -0.128   0.005   0.106  0.0000  0.0000  0.0000
    1TMSPa   Si    9  -0.270  -0.054   0.041  0.0000  0.0000  0.0000
    1TMSPa    C   10  -0.250  -0.214  -0.055  0.0000  0.0000  0.0000
    1TMSPa    C   11  -0.351   0.074  -0.070  0.0000  0.0000  0.0000
    1TMSPa    C   12  -0.391  -0.089   0.182  0.0000  0.0000  0.0000
    1TMSPa    O   13   0.112   0.077   0.096  0.0000  0.0000  0.0000
    1TMSPa   Si   14   0.106   0.243   0.085  0.0000  0.0000  0.0000
    1TMSPa    C   15   0.199   0.317   0.232  0.0000  0.0000  0.0000
    1TMSPa    C   16  -0.068   0.314   0.089  0.0000  0.0000  0.0000
    1TMSPa    C   17   0.192   0.303  -0.071  0.0000  0.0000  0.0000
    1TMSPa    H   18   0.392  -0.126  -0.147  0.0000  0.0000  0.0000
    1TMSPa    H   19   0.275   0.006  -0.143  0.0000  0.0000  0.0000
    1TMSPa    H   20   0.350  -0.051   0.008  0.0000  0.0000  0.0000
    1TMSPa    H   21   0.174  -0.442   0.018  0.0000  0.0000  0.0000
    1TMSPa    H   22   0.330  -0.401  -0.057  0.0000  0.0000  0.0000
    1TMSPa    H   23   0.291  -0.341   0.106  0.0000  0.0000  0.0000
    1TMSPa    H   24   0.030  -0.332  -0.230  0.0000  0.0000  0.0000
    1TMSPa    H   25   0.066  -0.169  -0.290  0.0000  0.0000  0.0000
    1TMSPa    H   26   0.189  -0.296  -0.300  0.0000  0.0000  0.0000
    1TMSPa    H   27  -0.202  -0.290   0.006  0.0000  0.0000  0.0000
    1TMSPa    H   28  -0.348  -0.252  -0.086  0.0000  0.0000  0.0000
    1TMSPa    H   29  -0.190  -0.198  -0.145  0.0000  0.0000  0.0000
    1TMSPa    H   30  -0.288   0.096  -0.157  0.0000  0.0000  0.0000
    1TMSPa    H   31  -0.368   0.167  -0.015  0.0000  0.0000  0.0000
    1TMSPa    H   32  -0.448   0.037  -0.106  0.0000  0.0000  0.0000
    1TMSPa    H   33  -0.486  -0.126   0.143  0.0000  0.0000  0.0000
    1TMSPa    H   34  -0.410   0.002   0.240  0.0000  0.0000  0.0000
    1TMSPa    H   35  -0.350  -0.165   0.250  0.0000  0.0000  0.0000
    1TMSPa    H   36   0.303   0.282   0.233  0.0000  0.0000  0.0000
    1TMSPa    H   37   0.152   0.287   0.326  0.0000  0.0000  0.0000
    1TMSPa    H   38   0.199   0.426   0.226  0.0000  0.0000  0.0000
    1TMSPa    H   39  -0.064   0.423   0.092  0.0000  0.0000  0.0000
    1TMSPa    H   40  -0.125   0.284   0.001  0.0000  0.0000  0.0000
    1TMSPa    H   41  -0.122   0.280   0.178  0.0000  0.0000  0.0000
    1TMSPa    H   42   0.140   0.268  -0.160  0.0000  0.0000  0.0000
    1TMSPa    H   43   0.194   0.413  -0.073  0.0000  0.0000  0.0000
    1TMSPa    H   44   0.295   0.267  -0.074  0.0000  0.0000  0.0000

