A Gromacs structure file written by ASE 
   43
    1TMSB     C    1   0.381   0.010  -0.150  0.0000  0.0000  0.0000
    1TMSB    Si    2   0.267  -0.034  -0.006  0.0000  0.0000  0.0000
    1TMSB     C    3   0.327  -0.195   0.068  0.0000  0.0000  0.0000
    1TMSB     C    4   0.290   0.099   0.120  0.0000  0.0000  0.0000
    1TMSB     O    5   0.113  -0.043  -0.072  0.0000  0.0000  0.0000
    1TMSB     B    6   0.005   0.004   0.015  0.0000  0.0000  0.0000
    1TMSB     O    7  -0.045  -0.103   0.105  0.0000  0.0000  0.0000
    1TMSB    Si    8  -0.140  -0.215   0.020  0.0000  0.0000  0.0000
    1TMSB     C    9  -0.203  -0.149  -0.143  0.0000  0.0000  0.0000
    1TMSB     C   10  -0.289  -0.260   0.126  0.0000  0.0000  0.0000
    1TMSB     C   11  -0.050  -0.374  -0.016  0.0000  0.0000  0.0000
    1TMSB     O   12  -0.104   0.070  -0.058  0.0000  0.0000  0.0000
    1TMSB    Si   13  -0.133   0.229  -0.013  0.0000  0.0000  0.0000
    1TMSB     C   14   0.002   0.310   0.084  0.0000  0.0000  0.0000
    1TMSB     C   15  -0.157   0.331  -0.170  0.0000  0.0000  0.0000
    1TMSB     C   16  -0.295   0.237   0.081  0.0000  0.0000  0.0000
    1TMSB     H   17   0.486   0.008  -0.120  0.0000  0.0000  0.0000
    1TMSB     H   18   0.355  -0.063  -0.230  0.0000  0.0000  0.0000
    1TMSB     H   19   0.346   0.111  -0.183  0.0000  0.0000  0.0000
    1TMSB     H   20   0.439  -0.192   0.058  0.0000  0.0000  0.0000
    1TMSB     H   21   0.310  -0.198   0.178  0.0000  0.0000  0.0000
    1TMSB     H   22   0.283  -0.283   0.021  0.0000  0.0000  0.0000
    1TMSB     H   23   0.218   0.099   0.202  0.0000  0.0000  0.0000
    1TMSB     H   24   0.390   0.077   0.170  0.0000  0.0000  0.0000
    1TMSB     H   25   0.303   0.200   0.078  0.0000  0.0000  0.0000
    1TMSB     H   26  -0.247  -0.238  -0.197  0.0000  0.0000  0.0000
    1TMSB     H   27  -0.119  -0.115  -0.205  0.0000  0.0000  0.0000
    1TMSB     H   28  -0.282  -0.074  -0.127  0.0000  0.0000  0.0000
    1TMSB     H   29  -0.267  -0.240   0.233  0.0000  0.0000  0.0000
    1TMSB     H   30  -0.315  -0.367   0.118  0.0000  0.0000  0.0000
    1TMSB     H   31  -0.370  -0.192   0.097  0.0000  0.0000  0.0000
    1TMSB     H   32  -0.050  -0.445   0.069  0.0000  0.0000  0.0000
    1TMSB     H   33   0.050  -0.359  -0.060  0.0000  0.0000  0.0000
    1TMSB     H   34  -0.109  -0.427  -0.097  0.0000  0.0000  0.0000
    1TMSB     H   35   0.095   0.307   0.025  0.0000  0.0000  0.0000
    1TMSB     H   36  -0.027   0.419   0.092  0.0000  0.0000  0.0000
    1TMSB     H   37   0.007   0.268   0.184  0.0000  0.0000  0.0000
    1TMSB     H   38  -0.260   0.323  -0.206  0.0000  0.0000  0.0000
    1TMSB     H   39  -0.140   0.439  -0.148  0.0000  0.0000  0.0000
    1TMSB     H   40  -0.084   0.303  -0.248  0.0000  0.0000  0.0000
    1TMSB     H   41  -0.324   0.136   0.118  0.0000  0.0000  0.0000
    1TMSB     H   42  -0.376   0.279   0.020  0.0000  0.0000  0.0000
    1TMSB     H   43  -0.280   0.306   0.167  0.0000  0.0000  0.0000

