; ITP file created by ByteFF-ML, 2026-04-09 23:00:40.570327

[ moleculetype ]
;name             nrexcl
 TMSB                  3

[ atoms ]
;       nr            type      resi   res      atom      cgnr      charge          mass ; qtot
         1            c0bf         1   UNL        c0         1    -0.62466       12.0110 ; qtot   -0.625
         2           si1bf         1   UNL       si1         2     1.20331       28.0860 ; qtot    0.579
         3            c2bf         1   UNL        c2         3    -0.62466       12.0110 ; qtot   -0.046
         4            c3bf         1   UNL        c3         4    -0.62466       12.0110 ; qtot   -0.671
         5            o4bf         1   UNL        o4         5    -0.77321       15.9990 ; qtot   -1.444
         6            b5bf         1   UNL        b5         6     1.09546       10.8120 ; qtot   -0.348
         7            o6bf         1   UNL        o6         7    -0.77321       15.9990 ; qtot   -1.122
         8           si7bf         1   UNL       si7         8     1.20331       28.0860 ; qtot    0.082
         9            c8bf         1   UNL        c8         9    -0.62466       12.0110 ; qtot   -0.543
        10            c9bf         1   UNL        c9        10    -0.62466       12.0110 ; qtot   -1.168
        11           c10bf         1   UNL       c10        11    -0.62466       12.0110 ; qtot   -1.792
        12           o11bf         1   UNL       o11        12    -0.77321       15.9990 ; qtot   -2.566
        13          si12bf         1   UNL      si12        13     1.20331       28.0860 ; qtot   -1.362
        14           c13bf         1   UNL       c13        14    -0.62466       12.0110 ; qtot   -1.987
        15           c14bf         1   UNL       c14        15    -0.62466       12.0110 ; qtot   -2.612
        16           c15bf         1   UNL       c15        16    -0.62466       12.0110 ; qtot   -3.236
        17           h16bf         1   UNL       h16        17     0.11986        1.0080 ; qtot   -3.116
        18           h17bf         1   UNL       h17        18     0.11986        1.0080 ; qtot   -2.996
        19           h18bf         1   UNL       h18        19     0.11986        1.0080 ; qtot   -2.877
        20           h19bf         1   UNL       h19        20     0.11986        1.0080 ; qtot   -2.757
        21           h20bf         1   UNL       h20        21     0.11986        1.0080 ; qtot   -2.637
        22           h21bf         1   UNL       h21        22     0.11986        1.0080 ; qtot   -2.517
        23           h22bf         1   UNL       h22        23     0.11986        1.0080 ; qtot   -2.397
        24           h23bf         1   UNL       h23        24     0.11986        1.0080 ; qtot   -2.277
        25           h24bf         1   UNL       h24        25     0.11986        1.0080 ; qtot   -2.157
        26           h25bf         1   UNL       h25        26     0.11986        1.0080 ; qtot   -2.038
        27           h26bf         1   UNL       h26        27     0.11986        1.0080 ; qtot   -1.918
        28           h27bf         1   UNL       h27        28     0.11986        1.0080 ; qtot   -1.798
        29           h28bf         1   UNL       h28        29     0.11986        1.0080 ; qtot   -1.678
        30           h29bf         1   UNL       h29        30     0.11986        1.0080 ; qtot   -1.558
        31           h30bf         1   UNL       h30        31     0.11986        1.0080 ; qtot   -1.438
        32           h31bf         1   UNL       h31        32     0.11986        1.0080 ; qtot   -1.318
        33           h32bf         1   UNL       h32        33     0.11986        1.0080 ; qtot   -1.199
        34           h33bf         1   UNL       h33        34     0.11986        1.0080 ; qtot   -1.079
        35           h34bf         1   UNL       h34        35     0.11986        1.0080 ; qtot   -0.959
        36           h35bf         1   UNL       h35        36     0.11986        1.0080 ; qtot   -0.839
        37           h36bf         1   UNL       h36        37     0.11986        1.0080 ; qtot   -0.719
        38           h37bf         1   UNL       h37        38     0.11986        1.0080 ; qtot   -0.599
        39           h38bf         1   UNL       h38        39     0.11986        1.0080 ; qtot   -0.479
        40           h39bf         1   UNL       h39        40     0.11986        1.0080 ; qtot   -0.360
        41           h40bf         1   UNL       h40        41     0.11986        1.0080 ; qtot   -0.240
        42           h41bf         1   UNL       h41        42     0.11986        1.0080 ; qtot   -0.120
        43           h42bf         1   UNL       h42        43     0.11982        1.0080 ; qtot    0.000

[ bonds ]
;       ai        aj funct               r               k
         1         2     1        0.187668   159995.097656
         1        17     1        0.109596   305994.863428
         1        18     1        0.109596   305994.863428
         1        19     1        0.109596   305994.863428
         2         3     1        0.187668   159995.097656
         2         4     1        0.187668   159995.097656
         2         5     1        0.168859   187846.890625
         3        20     1        0.109596   305994.863428
         3        21     1        0.109596   305994.863428
         3        22     1        0.109596   305994.863428
         4        23     1        0.109596   305994.863428
         4        24     1        0.109596   305994.863428
         4        25     1        0.109596   305994.863428
         5         6     1        0.137235   300327.259521
         6         7     1        0.137235   300327.285059
         6        12     1        0.137235   300327.285059
         7         8     1        0.168859   187846.865088
         8         9     1        0.187668   159995.046582
         8        10     1        0.187668   159995.046582
         8        11     1        0.187668   159995.046582
         9        26     1        0.109596   305994.837891
         9        27     1        0.109596   305994.837891
         9        28     1        0.109596   305994.837891
        10        29     1        0.109596   305994.837891
        10        30     1        0.109596   305994.837891
        10        31     1        0.109596   305994.837891
        11        32     1        0.109596   305994.837891
        11        33     1        0.109596   305994.837891
        11        34     1        0.109596   305994.837891
        12        13     1        0.168859   187846.865088
        13        14     1        0.187668   159995.059351
        13        15     1        0.187668   159995.059351
        13        16     1        0.187668   159995.046582
        14        35     1        0.109596   305994.837891
        14        36     1        0.109596   305994.837891
        14        37     1        0.109596   305994.837891
        15        38     1        0.109596   305994.837891
        15        39     1        0.109596   305994.837891
        15        40     1        0.109596   305994.837891
        16        41     1        0.109596   305994.837891
        16        42     1        0.109596   305994.837891
        16        43     1        0.109596   305994.837891

[ angles ]
;       ai        aj        ak funct           theta             cth
         1         2         3     1      111.143005      622.433332
         1         2         4     1      111.143005      622.433332
         1         2         5     1      107.681190      491.701527
         2         1        17     1      111.140862      427.476687
         2         1        18     1      111.140862      427.476687
         2         1        19     1      111.140862      427.476687
         2         3        20     1      111.140862      427.476687
         2         3        21     1      111.140862      427.476687
         2         3        22     1      111.140862      427.476687
         2         4        23     1      111.140862      427.476655
         2         4        24     1      111.140862      427.476655
         2         4        25     1      111.140862      427.476655
         2         5         6     1      131.847168      167.360000
         3         2         4     1      111.143005      622.433332
         3         2         5     1      107.681190      491.701527
         4         2         5     1      107.681190      491.701527
         5         6         7     1      119.025879      368.780694
         5         6        12     1      119.025879      368.780694
         6         7         8     1      131.847168      167.360000
         6        12        13     1      131.847168      167.360000
         7         6        12     1      119.025871      368.780567
         7         8         9     1      107.681190      491.701687
         7         8        10     1      107.681190      491.701687
         7         8        11     1      107.681190      491.701687
         8         9        26     1      111.140854      427.476623
         8         9        27     1      111.140854      427.476687
         8         9        28     1      111.140854      427.476623
         8        10        29     1      111.140854      427.476623
         8        10        30     1      111.140854      427.476623
         8        10        31     1      111.140854      427.476623
         8        11        32     1      111.140854      427.476623
         8        11        33     1      111.140854      427.476623
         8        11        34     1      111.140854      427.476687
         9         8        10     1      111.143013      622.433077
         9         8        11     1      111.143013      622.433077
        10         8        11     1      111.143013      622.433077
        12        13        14     1      107.681190      491.701687
        12        13        15     1      107.681190      491.701687
        12        13        16     1      107.681190      491.701655
        13        14        35     1      111.140854      427.476687
        13        14        36     1      111.140854      427.476687
        13        14        37     1      111.140854      427.476687
        13        15        38     1      111.140854      427.476687
        13        15        39     1      111.140854      427.476687
        13        15        40     1      111.140854      427.476687
        13        16        41     1      111.140854      427.476687
        13        16        42     1      111.140854      427.476687
        13        16        43     1      111.140854      427.476687
        14        13        15     1      111.143013      622.433077
        14        13        16     1      111.143013      622.433077
        15        13        16     1      111.143013      622.433077
        17         1        18     1      107.777313      375.045905
        17         1        19     1      107.777313      375.045969
        18         1        19     1      107.777313      375.045969
        20         3        21     1      107.777313      375.045969
        20         3        22     1      107.777313      375.045969
        21         3        22     1      107.777313      375.045969
        23         4        24     1      107.777313      375.045905
        23         4        25     1      107.777313      375.045905
        24         4        25     1      107.777313      375.045905
        26         9        27     1      107.777313      375.045905
        26         9        28     1      107.777313      375.045905
        27         9        28     1      107.777313      375.045905
        29        10        30     1      107.777313      375.045905
        29        10        31     1      107.777313      375.045905
        30        10        31     1      107.777313      375.045905
        32        11        33     1      107.777313      375.045905
        32        11        34     1      107.777313      375.045969
        33        11        34     1      107.777313      375.045969
        35        14        36     1      107.777313      375.045969
        35        14        37     1      107.777313      375.045969
        36        14        37     1      107.777313      375.045969
        38        15        39     1      107.777313      375.045969
        38        15        40     1      107.777313      375.045969
        39        15        40     1      107.777313      375.045969
        41        16        42     1      107.777313      375.045969
        41        16        43     1      107.777313      375.045969
        42        16        43     1      107.777313      375.045905

[ dihedrals ] ; propers for gromacs 4.5 or higher, use funct 9
;       ai        aj        ak        al funct           phase               k        pn
         1         2         3        20     9        0.000000        0.006009         1
         1         2         3        20     9      180.000000       -0.002906         2
         1         2         3        20     9        0.000000        0.550472         3
         1         2         3        20     9      180.000000       -0.001788         4
         1         2         3        21     9        0.000000        0.006009         1
         1         2         3        21     9      180.000000       -0.002906         2
         1         2         3        21     9        0.000000        0.550472         3
         1         2         3        21     9      180.000000       -0.001788         4
         1         2         3        22     9        0.000000        0.006009         1
         1         2         3        22     9      180.000000       -0.002906         2
         1         2         3        22     9        0.000000        0.550472         3
         1         2         3        22     9      180.000000       -0.001788         4
         1         2         4        23     9        0.000000        0.006008         1
         1         2         4        23     9      180.000000       -0.002907         2
         1         2         4        23     9        0.000000        0.550473         3
         1         2         4        23     9      180.000000       -0.001788         4
         1         2         4        24     9        0.000000        0.006008         1
         1         2         4        24     9      180.000000       -0.002907         2
         1         2         4        24     9        0.000000        0.550473         3
         1         2         4        24     9      180.000000       -0.001788         4
         1         2         4        25     9        0.000000        0.006008         1
         1         2         4        25     9      180.000000       -0.002907         2
         1         2         4        25     9        0.000000        0.550473         3
         1         2         4        25     9      180.000000       -0.001788         4
         1         2         5         6     9        0.000000       -0.300124         1
         1         2         5         6     9      180.000000       -0.235857         2
         1         2         5         6     9        0.000000        1.657679         3
         1         2         5         6     9      180.000000       -0.011946         4
         2         5         6         7     9        0.000000        0.030350         1
         2         5         6         7     9      180.000000        4.726156         2
         2         5         6         7     9        0.000000       -0.184838         3
         2         5         6         7     9      180.000000       -0.010649         4
         2         5         6        12     9        0.000000        0.030350         1
         2         5         6        12     9      180.000000        4.726156         2
         2         5         6        12     9        0.000000       -0.184838         3
         2         5         6        12     9      180.000000       -0.010649         4
         3         2         1        17     9        0.000000        0.006009         1
         3         2         1        17     9      180.000000       -0.002906         2
         3         2         1        17     9        0.000000        0.550472         3
         3         2         1        17     9      180.000000       -0.001788         4
         3         2         1        18     9        0.000000        0.006009         1
         3         2         1        18     9      180.000000       -0.002906         2
         3         2         1        18     9        0.000000        0.550472         3
         3         2         1        18     9      180.000000       -0.001788         4
         3         2         1        19     9        0.000000        0.006009         1
         3         2         1        19     9      180.000000       -0.002906         2
         3         2         1        19     9        0.000000        0.550472         3
         3         2         1        19     9      180.000000       -0.001788         4
         3         2         4        23     9        0.000000        0.006008         1
         3         2         4        23     9      180.000000       -0.002907         2
         3         2         4        23     9        0.000000        0.550473         3
         3         2         4        23     9      180.000000       -0.001788         4
         3         2         4        24     9        0.000000        0.006008         1
         3         2         4        24     9      180.000000       -0.002907         2
         3         2         4        24     9        0.000000        0.550473         3
         3         2         4        24     9      180.000000       -0.001788         4
         3         2         4        25     9        0.000000        0.006008         1
         3         2         4        25     9      180.000000       -0.002907         2
         3         2         4        25     9        0.000000        0.550473         3
         3         2         4        25     9      180.000000       -0.001788         4
         3         2         5         6     9        0.000000       -0.300124         1
         3         2         5         6     9      180.000000       -0.235857         2
         3         2         5         6     9        0.000000        1.657679         3
         3         2         5         6     9      180.000000       -0.011946         4
         4         2         1        17     9        0.000000        0.006009         1
         4         2         1        17     9      180.000000       -0.002906         2
         4         2         1        17     9        0.000000        0.550472         3
         4         2         1        17     9      180.000000       -0.001788         4
         4         2         1        18     9        0.000000        0.006009         1
         4         2         1        18     9      180.000000       -0.002906         2
         4         2         1        18     9        0.000000        0.550472         3
         4         2         1        18     9      180.000000       -0.001788         4
         4         2         1        19     9        0.000000        0.006009         1
         4         2         1        19     9      180.000000       -0.002906         2
         4         2         1        19     9        0.000000        0.550472         3
         4         2         1        19     9      180.000000       -0.001788         4
         4         2         3        20     9        0.000000        0.006009         1
         4         2         3        20     9      180.000000       -0.002906         2
         4         2         3        20     9        0.000000        0.550472         3
         4         2         3        20     9      180.000000       -0.001788         4
         4         2         3        21     9        0.000000        0.006009         1
         4         2         3        21     9      180.000000       -0.002906         2
         4         2         3        21     9        0.000000        0.550472         3
         4         2         3        21     9      180.000000       -0.001788         4
         4         2         3        22     9        0.000000        0.006009         1
         4         2         3        22     9      180.000000       -0.002906         2
         4         2         3        22     9        0.000000        0.550472         3
         4         2         3        22     9      180.000000       -0.001788         4
         4         2         5         6     9        0.000000       -0.300124         1
         4         2         5         6     9      180.000000       -0.235857         2
         4         2         5         6     9        0.000000        1.657679         3
         4         2         5         6     9      180.000000       -0.011946         4
         5         2         1        17     9        0.000000        0.874164         1
         5         2         1        17     9      180.000000        0.045871         2
         5         2         1        17     9        0.000000        0.094379         3
         5         2         1        17     9      180.000000       -0.004766         4
         5         2         1        18     9        0.000000        0.874164         1
         5         2         1        18     9      180.000000        0.045871         2
         5         2         1        18     9        0.000000        0.094379         3
         5         2         1        18     9      180.000000       -0.004766         4
         5         2         1        19     9        0.000000        0.874164         1
         5         2         1        19     9      180.000000        0.045871         2
         5         2         1        19     9        0.000000        0.094379         3
         5         2         1        19     9      180.000000       -0.004766         4
         5         2         3        20     9        0.000000        0.874164         1
         5         2         3        20     9      180.000000        0.045871         2
         5         2         3        20     9        0.000000        0.094379         3
         5         2         3        20     9      180.000000       -0.004766         4
         5         2         3        21     9        0.000000        0.874164         1
         5         2         3        21     9      180.000000        0.045871         2
         5         2         3        21     9        0.000000        0.094379         3
         5         2         3        21     9      180.000000       -0.004766         4
         5         2         3        22     9        0.000000        0.874164         1
         5         2         3        22     9      180.000000        0.045871         2
         5         2         3        22     9        0.000000        0.094379         3
         5         2         3        22     9      180.000000       -0.004766         4
         5         2         4        23     9        0.000000        0.874162         1
         5         2         4        23     9      180.000000        0.045870         2
         5         2         4        23     9        0.000000        0.094377         3
         5         2         4        23     9      180.000000       -0.004767         4
         5         2         4        24     9        0.000000        0.874162         1
         5         2         4        24     9      180.000000        0.045870         2
         5         2         4        24     9        0.000000        0.094377         3
         5         2         4        24     9      180.000000       -0.004767         4
         5         2         4        25     9        0.000000        0.874162         1
         5         2         4        25     9      180.000000        0.045870         2
         5         2         4        25     9        0.000000        0.094377         3
         5         2         4        25     9      180.000000       -0.004767         4
         5         6         7         8     9        0.000000        0.030350         1
         5         6         7         8     9      180.000000        4.726160         2
         5         6         7         8     9        0.000000       -0.184839         3
         5         6         7         8     9      180.000000       -0.010649         4
         5         6        12        13     9        0.000000        0.030350         1
         5         6        12        13     9      180.000000        4.726160         2
         5         6        12        13     9        0.000000       -0.184839         3
         5         6        12        13     9      180.000000       -0.010649         4
         6         7         8         9     9        0.000000       -0.300123         1
         6         7         8         9     9      180.000000       -0.235857         2
         6         7         8         9     9        0.000000        1.657687         3
         6         7         8         9     9      180.000000       -0.011946         4
         6         7         8        10     9        0.000000       -0.300123         1
         6         7         8        10     9      180.000000       -0.235857         2
         6         7         8        10     9        0.000000        1.657687         3
         6         7         8        10     9      180.000000       -0.011946         4
         6         7         8        11     9        0.000000       -0.300123         1
         6         7         8        11     9      180.000000       -0.235857         2
         6         7         8        11     9        0.000000        1.657687         3
         6         7         8        11     9      180.000000       -0.011946         4
         6        12        13        14     9        0.000000       -0.300123         1
         6        12        13        14     9      180.000000       -0.235857         2
         6        12        13        14     9        0.000000        1.657687         3
         6        12        13        14     9      180.000000       -0.011946         4
         6        12        13        15     9        0.000000       -0.300123         1
         6        12        13        15     9      180.000000       -0.235857         2
         6        12        13        15     9        0.000000        1.657687         3
         6        12        13        15     9      180.000000       -0.011946         4
         6        12        13        16     9        0.000000       -0.300123         1
         6        12        13        16     9      180.000000       -0.235857         2
         6        12        13        16     9        0.000000        1.657687         3
         6        12        13        16     9      180.000000       -0.011946         4
         7         6        12        13     9        0.000000        0.030350         1
         7         6        12        13     9      180.000000        4.726154         2
         7         6        12        13     9        0.000000       -0.184838         3
         7         6        12        13     9      180.000000       -0.010649         4
         7         8         9        26     9        0.000000        0.874165         1
         7         8         9        26     9      180.000000        0.045868         2
         7         8         9        26     9        0.000000        0.094380         3
         7         8         9        26     9      180.000000       -0.004767         4
         7         8         9        27     9        0.000000        0.874165         1
         7         8         9        27     9      180.000000        0.045868         2
         7         8         9        27     9        0.000000        0.094380         3
         7         8         9        27     9      180.000000       -0.004767         4
         7         8         9        28     9        0.000000        0.874165         1
         7         8         9        28     9      180.000000        0.045868         2
         7         8         9        28     9        0.000000        0.094380         3
         7         8         9        28     9      180.000000       -0.004767         4
         7         8        10        29     9        0.000000        0.874165         1
         7         8        10        29     9      180.000000        0.045868         2
         7         8        10        29     9        0.000000        0.094380         3
         7         8        10        29     9      180.000000       -0.004767         4
         7         8        10        30     9        0.000000        0.874165         1
         7         8        10        30     9      180.000000        0.045868         2
         7         8        10        30     9        0.000000        0.094380         3
         7         8        10        30     9      180.000000       -0.004767         4
         7         8        10        31     9        0.000000        0.874165         1
         7         8        10        31     9      180.000000        0.045868         2
         7         8        10        31     9        0.000000        0.094380         3
         7         8        10        31     9      180.000000       -0.004767         4
         7         8        11        32     9        0.000000        0.874165         1
         7         8        11        32     9      180.000000        0.045868         2
         7         8        11        32     9        0.000000        0.094380         3
         7         8        11        32     9      180.000000       -0.004767         4
         7         8        11        33     9        0.000000        0.874165         1
         7         8        11        33     9      180.000000        0.045868         2
         7         8        11        33     9        0.000000        0.094380         3
         7         8        11        33     9      180.000000       -0.004767         4
         7         8        11        34     9        0.000000        0.874165         1
         7         8        11        34     9      180.000000        0.045872         2
         7         8        11        34     9        0.000000        0.094382         3
         7         8        11        34     9      180.000000       -0.004766         4
         8         7         6        12     9        0.000000        0.030350         1
         8         7         6        12     9      180.000000        4.726154         2
         8         7         6        12     9        0.000000       -0.184838         3
         8         7         6        12     9      180.000000       -0.010649         4
         9         8        10        29     9        0.000000        0.006009         1
         9         8        10        29     9      180.000000       -0.002903         2
         9         8        10        29     9        0.000000        0.550471         3
         9         8        10        29     9      180.000000       -0.001788         4
         9         8        10        30     9        0.000000        0.006009         1
         9         8        10        30     9      180.000000       -0.002903         2
         9         8        10        30     9        0.000000        0.550471         3
         9         8        10        30     9      180.000000       -0.001788         4
         9         8        10        31     9        0.000000        0.006009         1
         9         8        10        31     9      180.000000       -0.002903         2
         9         8        10        31     9        0.000000        0.550471         3
         9         8        10        31     9      180.000000       -0.001788         4
         9         8        11        32     9        0.000000        0.006009         1
         9         8        11        32     9      180.000000       -0.002903         2
         9         8        11        32     9        0.000000        0.550471         3
         9         8        11        32     9      180.000000       -0.001788         4
         9         8        11        33     9        0.000000        0.006009         1
         9         8        11        33     9      180.000000       -0.002903         2
         9         8        11        33     9        0.000000        0.550471         3
         9         8        11        33     9      180.000000       -0.001788         4
         9         8        11        34     9        0.000000        0.006008         1
         9         8        11        34     9      180.000000       -0.002906         2
         9         8        11        34     9        0.000000        0.550473         3
         9         8        11        34     9      180.000000       -0.001788         4
        10         8         9        26     9        0.000000        0.006009         1
        10         8         9        26     9      180.000000       -0.002903         2
        10         8         9        26     9        0.000000        0.550471         3
        10         8         9        26     9      180.000000       -0.001788         4
        10         8         9        27     9        0.000000        0.006009         1
        10         8         9        27     9      180.000000       -0.002903         2
        10         8         9        27     9        0.000000        0.550471         3
        10         8         9        27     9      180.000000       -0.001788         4
        10         8         9        28     9        0.000000        0.006009         1
        10         8         9        28     9      180.000000       -0.002903         2
        10         8         9        28     9        0.000000        0.550471         3
        10         8         9        28     9      180.000000       -0.001788         4
        10         8        11        32     9        0.000000        0.006009         1
        10         8        11        32     9      180.000000       -0.002903         2
        10         8        11        32     9        0.000000        0.550471         3
        10         8        11        32     9      180.000000       -0.001788         4
        10         8        11        33     9        0.000000        0.006009         1
        10         8        11        33     9      180.000000       -0.002903         2
        10         8        11        33     9        0.000000        0.550471         3
        10         8        11        33     9      180.000000       -0.001788         4
        10         8        11        34     9        0.000000        0.006008         1
        10         8        11        34     9      180.000000       -0.002906         2
        10         8        11        34     9        0.000000        0.550473         3
        10         8        11        34     9      180.000000       -0.001788         4
        11         8         9        26     9        0.000000        0.006009         1
        11         8         9        26     9      180.000000       -0.002903         2
        11         8         9        26     9        0.000000        0.550471         3
        11         8         9        26     9      180.000000       -0.001788         4
        11         8         9        27     9        0.000000        0.006009         1
        11         8         9        27     9      180.000000       -0.002903         2
        11         8         9        27     9        0.000000        0.550471         3
        11         8         9        27     9      180.000000       -0.001788         4
        11         8         9        28     9        0.000000        0.006009         1
        11         8         9        28     9      180.000000       -0.002903         2
        11         8         9        28     9        0.000000        0.550471         3
        11         8         9        28     9      180.000000       -0.001788         4
        11         8        10        29     9        0.000000        0.006009         1
        11         8        10        29     9      180.000000       -0.002903         2
        11         8        10        29     9        0.000000        0.550471         3
        11         8        10        29     9      180.000000       -0.001788         4
        11         8        10        30     9        0.000000        0.006009         1
        11         8        10        30     9      180.000000       -0.002903         2
        11         8        10        30     9        0.000000        0.550471         3
        11         8        10        30     9      180.000000       -0.001788         4
        11         8        10        31     9        0.000000        0.006009         1
        11         8        10        31     9      180.000000       -0.002903         2
        11         8        10        31     9        0.000000        0.550471         3
        11         8        10        31     9      180.000000       -0.001788         4
        12        13        14        35     9        0.000000        0.874165         1
        12        13        14        35     9      180.000000        0.045872         2
        12        13        14        35     9        0.000000        0.094382         3
        12        13        14        35     9      180.000000       -0.004766         4
        12        13        14        36     9        0.000000        0.874165         1
        12        13        14        36     9      180.000000        0.045872         2
        12        13        14        36     9        0.000000        0.094382         3
        12        13        14        36     9      180.000000       -0.004766         4
        12        13        14        37     9        0.000000        0.874165         1
        12        13        14        37     9      180.000000        0.045872         2
        12        13        14        37     9        0.000000        0.094382         3
        12        13        14        37     9      180.000000       -0.004766         4
        12        13        15        38     9        0.000000        0.874165         1
        12        13        15        38     9      180.000000        0.045872         2
        12        13        15        38     9        0.000000        0.094382         3
        12        13        15        38     9      180.000000       -0.004766         4
        12        13        15        39     9        0.000000        0.874165         1
        12        13        15        39     9      180.000000        0.045872         2
        12        13        15        39     9        0.000000        0.094382         3
        12        13        15        39     9      180.000000       -0.004766         4
        12        13        15        40     9        0.000000        0.874165         1
        12        13        15        40     9      180.000000        0.045872         2
        12        13        15        40     9        0.000000        0.094382         3
        12        13        15        40     9      180.000000       -0.004766         4
        12        13        16        41     9        0.000000        0.874165         1
        12        13        16        41     9      180.000000        0.045872         2
        12        13        16        41     9        0.000000        0.094382         3
        12        13        16        41     9      180.000000       -0.004766         4
        12        13        16        42     9        0.000000        0.874165         1
        12        13        16        42     9      180.000000        0.045872         2
        12        13        16        42     9        0.000000        0.094382         3
        12        13        16        42     9      180.000000       -0.004766         4
        12        13        16        43     9        0.000000        0.874165         1
        12        13        16        43     9      180.000000        0.045872         2
        12        13        16        43     9        0.000000        0.094382         3
        12        13        16        43     9      180.000000       -0.004766         4
        14        13        15        38     9        0.000000        0.006008         1
        14        13        15        38     9      180.000000       -0.002906         2
        14        13        15        38     9        0.000000        0.550473         3
        14        13        15        38     9      180.000000       -0.001788         4
        14        13        15        39     9        0.000000        0.006008         1
        14        13        15        39     9      180.000000       -0.002906         2
        14        13        15        39     9        0.000000        0.550473         3
        14        13        15        39     9      180.000000       -0.001788         4
        14        13        15        40     9        0.000000        0.006008         1
        14        13        15        40     9      180.000000       -0.002906         2
        14        13        15        40     9        0.000000        0.550473         3
        14        13        15        40     9      180.000000       -0.001788         4
        14        13        16        41     9        0.000000        0.006008         1
        14        13        16        41     9      180.000000       -0.002906         2
        14        13        16        41     9        0.000000        0.550473         3
        14        13        16        41     9      180.000000       -0.001788         4
        14        13        16        42     9        0.000000        0.006008         1
        14        13        16        42     9      180.000000       -0.002906         2
        14        13        16        42     9        0.000000        0.550473         3
        14        13        16        42     9      180.000000       -0.001788         4
        14        13        16        43     9        0.000000        0.006008         1
        14        13        16        43     9      180.000000       -0.002906         2
        14        13        16        43     9        0.000000        0.550473         3
        14        13        16        43     9      180.000000       -0.001788         4
        15        13        14        35     9        0.000000        0.006008         1
        15        13        14        35     9      180.000000       -0.002906         2
        15        13        14        35     9        0.000000        0.550473         3
        15        13        14        35     9      180.000000       -0.001788         4
        15        13        14        36     9        0.000000        0.006008         1
        15        13        14        36     9      180.000000       -0.002906         2
        15        13        14        36     9        0.000000        0.550473         3
        15        13        14        36     9      180.000000       -0.001788         4
        15        13        14        37     9        0.000000        0.006008         1
        15        13        14        37     9      180.000000       -0.002906         2
        15        13        14        37     9        0.000000        0.550473         3
        15        13        14        37     9      180.000000       -0.001788         4
        15        13        16        41     9        0.000000        0.006008         1
        15        13        16        41     9      180.000000       -0.002906         2
        15        13        16        41     9        0.000000        0.550473         3
        15        13        16        41     9      180.000000       -0.001788         4
        15        13        16        42     9        0.000000        0.006008         1
        15        13        16        42     9      180.000000       -0.002906         2
        15        13        16        42     9        0.000000        0.550473         3
        15        13        16        42     9      180.000000       -0.001788         4
        15        13        16        43     9        0.000000        0.006008         1
        15        13        16        43     9      180.000000       -0.002906         2
        15        13        16        43     9        0.000000        0.550473         3
        15        13        16        43     9      180.000000       -0.001788         4
        16        13        14        35     9        0.000000        0.006008         1
        16        13        14        35     9      180.000000       -0.002906         2
        16        13        14        35     9        0.000000        0.550473         3
        16        13        14        35     9      180.000000       -0.001788         4
        16        13        14        36     9        0.000000        0.006008         1
        16        13        14        36     9      180.000000       -0.002906         2
        16        13        14        36     9        0.000000        0.550473         3
        16        13        14        36     9      180.000000       -0.001788         4
        16        13        14        37     9        0.000000        0.006008         1
        16        13        14        37     9      180.000000       -0.002906         2
        16        13        14        37     9        0.000000        0.550473         3
        16        13        14        37     9      180.000000       -0.001788         4
        16        13        15        38     9        0.000000        0.006008         1
        16        13        15        38     9      180.000000       -0.002906         2
        16        13        15        38     9        0.000000        0.550473         3
        16        13        15        38     9      180.000000       -0.001788         4
        16        13        15        39     9        0.000000        0.006008         1
        16        13        15        39     9      180.000000       -0.002906         2
        16        13        15        39     9        0.000000        0.550473         3
        16        13        15        39     9      180.000000       -0.001788         4
        16        13        15        40     9        0.000000        0.006008         1
        16        13        15        40     9      180.000000       -0.002906         2
        16        13        15        40     9        0.000000        0.550473         3
        16        13        15        40     9      180.000000       -0.001788         4

[ pairs ]
;       ai        aj funct
         1         6     1
         1        20     1
         1        21     1
         1        22     1
         1        23     1
         1        24     1
         1        25     1
         2         7     1
         2        12     1
         3         6     1
         3        17     1
         3        18     1
         3        19     1
         3        23     1
         3        24     1
         3        25     1
         4         6     1
         4        17     1
         4        18     1
         4        19     1
         4        20     1
         4        21     1
         4        22     1
         5         8     1
         5        13     1
         5        17     1
         5        18     1
         5        19     1
         5        20     1
         5        21     1
         5        22     1
         5        23     1
         5        24     1
         5        25     1
         6         9     1
         6        10     1
         6        11     1
         6        14     1
         6        15     1
         6        16     1
         7        13     1
         7        26     1
         7        27     1
         7        28     1
         7        29     1
         7        30     1
         7        31     1
         7        32     1
         7        33     1
         7        34     1
         8        12     1
         9        29     1
         9        30     1
         9        31     1
         9        32     1
         9        33     1
         9        34     1
        10        26     1
        10        27     1
        10        28     1
        10        32     1
        10        33     1
        10        34     1
        11        26     1
        11        27     1
        11        28     1
        11        29     1
        11        30     1
        11        31     1
        12        35     1
        12        36     1
        12        37     1
        12        38     1
        12        39     1
        12        40     1
        12        41     1
        12        42     1
        12        43     1
        14        38     1
        14        39     1
        14        40     1
        14        41     1
        14        42     1
        14        43     1
        15        35     1
        15        36     1
        15        37     1
        15        41     1
        15        42     1
        15        43     1
        16        35     1
        16        36     1
        16        37     1
        16        38     1
        16        39     1
        16        40     1
