; ITP file created by ByteFF-ML, 2026-04-09 23:00:53.037450

[ moleculetype ]
;name             nrexcl
 TMSPi                 3

[ atoms ]
;       nr            type      resi   res      atom      cgnr      charge          mass ; qtot
         1            c0bf         1   UNL        c0         1    -0.60082       12.0110 ; qtot   -0.601
         2           si1bf         1   UNL       si1         2     1.15378       28.0860 ; qtot    0.553
         3            c2bf         1   UNL        c2         3    -0.60082       12.0110 ; qtot   -0.048
         4            c3bf         1   UNL        c3         4    -0.60082       12.0110 ; qtot   -0.649
         5            o4bf         1   UNL        o4         5    -0.46242       15.9990 ; qtot   -1.111
         6            p5bf         1   UNL        p5         6     0.11249       30.9740 ; qtot   -0.999
         7            o6bf         1   UNL        o6         7    -0.46242       15.9990 ; qtot   -1.461
         8           si7bf         1   UNL       si7         8     1.15378       28.0860 ; qtot   -0.307
         9            c8bf         1   UNL        c8         9    -0.60082       12.0110 ; qtot   -0.908
        10            c9bf         1   UNL        c9        10    -0.60082       12.0110 ; qtot   -1.509
        11           c10bf         1   UNL       c10        11    -0.60082       12.0110 ; qtot   -2.110
        12           o11bf         1   UNL       o11        12    -0.46242       15.9990 ; qtot   -2.572
        13          si12bf         1   UNL      si12        13     1.15378       28.0860 ; qtot   -1.418
        14           c13bf         1   UNL       c13        14    -0.60082       12.0110 ; qtot   -2.019
        15           c14bf         1   UNL       c14        15    -0.60082       12.0110 ; qtot   -2.620
        16           c15bf         1   UNL       c15        16    -0.60082       12.0110 ; qtot   -3.221
        17           h16bf         1   UNL       h16        17     0.11929        1.0080 ; qtot   -3.102
        18           h17bf         1   UNL       h17        18     0.11929        1.0080 ; qtot   -2.982
        19           h18bf         1   UNL       h18        19     0.11929        1.0080 ; qtot   -2.863
        20           h19bf         1   UNL       h19        20     0.11929        1.0080 ; qtot   -2.744
        21           h20bf         1   UNL       h20        21     0.11929        1.0080 ; qtot   -2.624
        22           h21bf         1   UNL       h21        22     0.11929        1.0080 ; qtot   -2.505
        23           h22bf         1   UNL       h22        23     0.11929        1.0080 ; qtot   -2.386
        24           h23bf         1   UNL       h23        24     0.11929        1.0080 ; qtot   -2.266
        25           h24bf         1   UNL       h24        25     0.11929        1.0080 ; qtot   -2.147
        26           h25bf         1   UNL       h25        26     0.11929        1.0080 ; qtot   -2.028
        27           h26bf         1   UNL       h26        27     0.11929        1.0080 ; qtot   -1.909
        28           h27bf         1   UNL       h27        28     0.11929        1.0080 ; qtot   -1.789
        29           h28bf         1   UNL       h28        29     0.11929        1.0080 ; qtot   -1.670
        30           h29bf         1   UNL       h29        30     0.11929        1.0080 ; qtot   -1.551
        31           h30bf         1   UNL       h30        31     0.11929        1.0080 ; qtot   -1.431
        32           h31bf         1   UNL       h31        32     0.11929        1.0080 ; qtot   -1.312
        33           h32bf         1   UNL       h32        33     0.11929        1.0080 ; qtot   -1.193
        34           h33bf         1   UNL       h33        34     0.11929        1.0080 ; qtot   -1.074
        35           h34bf         1   UNL       h34        35     0.11929        1.0080 ; qtot   -0.954
        36           h35bf         1   UNL       h35        36     0.11929        1.0080 ; qtot   -0.835
        37           h36bf         1   UNL       h36        37     0.11929        1.0080 ; qtot   -0.716
        38           h37bf         1   UNL       h37        38     0.11929        1.0080 ; qtot   -0.596
        39           h38bf         1   UNL       h38        39     0.11929        1.0080 ; qtot   -0.477
        40           h39bf         1   UNL       h39        40     0.11929        1.0080 ; qtot   -0.358
        41           h40bf         1   UNL       h40        41     0.11929        1.0080 ; qtot   -0.239
        42           h41bf         1   UNL       h41        42     0.11929        1.0080 ; qtot   -0.119
        43           h42bf         1   UNL       h42        43     0.11927        1.0080 ; qtot   -0.000

[ bonds ]
;       ai        aj funct               r               k
         1         2     1        0.187300   159071.548096
         1        17     1        0.109583   306578.309766
         1        18     1        0.109583   306578.309766
         1        19     1        0.109583   306578.309766
         2         3     1        0.187300   159071.548096
         2         4     1        0.187300   159071.548096
         2         5     1        0.170016   172204.887622
         3        20     1        0.109583   306578.309766
         3        21     1        0.109583   306578.309766
         3        22     1        0.109583   306578.309766
         4        23     1        0.109583   306578.258691
         4        24     1        0.109583   306578.258691
         4        25     1        0.109583   306578.258691
         5         6     1        0.163451   217009.145898
         6         7     1        0.163451   217009.196973
         6        12     1        0.163451   217009.196973
         7         8     1        0.170016   172204.977002
         8         9     1        0.187300   159071.548096
         8        10     1        0.187300   159071.548096
         8        11     1        0.187300   159071.548096
         9        26     1        0.109583   306578.284229
         9        27     1        0.109583   306578.284229
         9        28     1        0.109583   306578.284229
        10        29     1        0.109583   306578.284229
        10        30     1        0.109583   306578.284229
        10        31     1        0.109583   306578.284229
        11        32     1        0.109583   306578.284229
        11        33     1        0.109583   306578.284229
        11        34     1        0.109583   306578.309766
        12        13     1        0.170016   172204.887622
        13        14     1        0.187300   159071.509790
        13        15     1        0.187300   159071.509790
        13        16     1        0.187300   159071.548096
        14        35     1        0.109583   306578.309766
        14        36     1        0.109583   306578.309766
        14        37     1        0.109583   306578.309766
        15        38     1        0.109583   306578.309766
        15        39     1        0.109583   306578.309766
        15        40     1        0.109583   306578.309766
        16        41     1        0.109583   306578.309766
        16        42     1        0.109583   306578.309766
        16        43     1        0.109583   306578.309766

[ angles ]
;       ai        aj        ak funct           theta             cth
         1         2         3     1      111.286301      635.080585
         1         2         4     1      111.286301      635.080585
         1         2         5     1      106.624016      467.169463
         2         1        17     1      110.949074      425.401126
         2         1        18     1      110.949074      425.401126
         2         1        19     1      110.949074      425.401126
         2         3        20     1      110.949074      425.401126
         2         3        21     1      110.949074      425.401126
         2         3        22     1      110.949074      425.401126
         2         4        23     1      110.949074      425.401190
         2         4        24     1      110.949074      425.401190
         2         4        25     1      110.949074      425.401190
         2         5         6     1      129.418640      322.413635
         3         2         4     1      111.286301      635.080585
         3         2         5     1      106.624016      467.169463
         4         2         5     1      106.624016      467.169463
         5         6         7     1      101.431145      559.007516
         5         6        12     1      101.431145      559.007516
         6         7         8     1      129.418640      322.413475
         6        12        13     1      129.418640      322.413475
         7         6        12     1      101.431145      559.007580
         7         8         9     1      106.624001      467.169495
         7         8        10     1      106.624001      467.169495
         7         8        11     1      106.624001      467.169495
         8         9        26     1      110.949066      425.401062
         8         9        27     1      110.949066      425.401062
         8         9        28     1      110.949066      425.401062
         8        10        29     1      110.949066      425.401062
         8        10        30     1      110.949066      425.401062
         8        10        31     1      110.949066      425.401062
         8        11        32     1      110.949066      425.401062
         8        11        33     1      110.949066      425.401062
         8        11        34     1      110.949074      425.401094
         9         8        10     1      111.286308      635.080266
         9         8        11     1      111.286308      635.080266
        10         8        11     1      111.286308      635.080266
        12        13        14     1      106.624001      467.169495
        12        13        15     1      106.624001      467.169495
        12        13        16     1      106.624001      467.169463
        13        14        35     1      110.949074      425.401094
        13        14        36     1      110.949074      425.401094
        13        14        37     1      110.949074      425.401094
        13        15        38     1      110.949074      425.401094
        13        15        39     1      110.949074      425.401094
        13        15        40     1      110.949074      425.401094
        13        16        41     1      110.949074      425.401094
        13        16        42     1      110.949074      425.401094
        13        16        43     1      110.949074      425.401094
        14        13        15     1      111.286308      635.080266
        14        13        16     1      111.286308      635.080266
        15        13        16     1      111.286308      635.080266
        17         1        18     1      107.858398      375.049161
        17         1        19     1      107.858398      375.049161
        18         1        19     1      107.858398      375.049161
        20         3        21     1      107.858398      375.049161
        20         3        22     1      107.858398      375.049161
        21         3        22     1      107.858398      375.049161
        23         4        24     1      107.858398      375.049225
        23         4        25     1      107.858398      375.049225
        24         4        25     1      107.858398      375.049225
        26         9        27     1      107.858398      375.049033
        26         9        28     1      107.858398      375.049033
        27         9        28     1      107.858398      375.049033
        29        10        30     1      107.858398      375.049033
        29        10        31     1      107.858398      375.049033
        30        10        31     1      107.858398      375.049033
        32        11        33     1      107.858398      375.049033
        32        11        34     1      107.858398      375.049033
        33        11        34     1      107.858398      375.049033
        35        14        36     1      107.858398      375.049097
        35        14        37     1      107.858398      375.049097
        36        14        37     1      107.858398      375.049097
        38        15        39     1      107.858398      375.049097
        38        15        40     1      107.858398      375.049097
        39        15        40     1      107.858398      375.049097
        41        16        42     1      107.858398      375.049097
        41        16        43     1      107.858398      375.049097
        42        16        43     1      107.858398      375.049097

[ dihedrals ] ; propers for gromacs 4.5 or higher, use funct 9
;       ai        aj        ak        al funct           phase               k        pn
         1         2         3        20     9        0.000000        0.006823         1
         1         2         3        20     9      180.000000        0.001968         2
         1         2         3        20     9        0.000000        0.526648         3
         1         2         3        20     9      180.000000       -0.002031         4
         1         2         3        21     9        0.000000        0.006823         1
         1         2         3        21     9      180.000000        0.001968         2
         1         2         3        21     9        0.000000        0.526648         3
         1         2         3        21     9      180.000000       -0.002031         4
         1         2         3        22     9        0.000000        0.006823         1
         1         2         3        22     9      180.000000        0.001968         2
         1         2         3        22     9        0.000000        0.526648         3
         1         2         3        22     9      180.000000       -0.002031         4
         1         2         4        23     9        0.000000        0.006823         1
         1         2         4        23     9      180.000000        0.001968         2
         1         2         4        23     9        0.000000        0.526651         3
         1         2         4        23     9      180.000000       -0.002031         4
         1         2         4        24     9        0.000000        0.006823         1
         1         2         4        24     9      180.000000        0.001968         2
         1         2         4        24     9        0.000000        0.526651         3
         1         2         4        24     9      180.000000       -0.002031         4
         1         2         4        25     9        0.000000        0.006823         1
         1         2         4        25     9      180.000000        0.001968         2
         1         2         4        25     9        0.000000        0.526651         3
         1         2         4        25     9      180.000000       -0.002031         4
         1         2         5         6     9        0.000000      -15.971682         1
         1         2         5         6     9      180.000000        0.338545         2
         1         2         5         6     9        0.000000        1.680131         3
         1         2         5         6     9      180.000000        0.002589         4
         2         5         6         7     9        0.000000       -1.427809         1
         2         5         6         7     9      180.000000       -6.227697         2
         2         5         6         7     9        0.000000        0.276226         3
         2         5         6         7     9      180.000000       -0.008436         4
         2         5         6        12     9        0.000000       -1.427809         1
         2         5         6        12     9      180.000000       -6.227697         2
         2         5         6        12     9        0.000000        0.276226         3
         2         5         6        12     9      180.000000       -0.008436         4
         3         2         1        17     9        0.000000        0.006823         1
         3         2         1        17     9      180.000000        0.001968         2
         3         2         1        17     9        0.000000        0.526648         3
         3         2         1        17     9      180.000000       -0.002031         4
         3         2         1        18     9        0.000000        0.006823         1
         3         2         1        18     9      180.000000        0.001968         2
         3         2         1        18     9        0.000000        0.526648         3
         3         2         1        18     9      180.000000       -0.002031         4
         3         2         1        19     9        0.000000        0.006823         1
         3         2         1        19     9      180.000000        0.001968         2
         3         2         1        19     9        0.000000        0.526648         3
         3         2         1        19     9      180.000000       -0.002031         4
         3         2         4        23     9        0.000000        0.006823         1
         3         2         4        23     9      180.000000        0.001968         2
         3         2         4        23     9        0.000000        0.526651         3
         3         2         4        23     9      180.000000       -0.002031         4
         3         2         4        24     9        0.000000        0.006823         1
         3         2         4        24     9      180.000000        0.001968         2
         3         2         4        24     9        0.000000        0.526651         3
         3         2         4        24     9      180.000000       -0.002031         4
         3         2         4        25     9        0.000000        0.006823         1
         3         2         4        25     9      180.000000        0.001968         2
         3         2         4        25     9        0.000000        0.526651         3
         3         2         4        25     9      180.000000       -0.002031         4
         3         2         5         6     9        0.000000      -15.971682         1
         3         2         5         6     9      180.000000        0.338545         2
         3         2         5         6     9        0.000000        1.680131         3
         3         2         5         6     9      180.000000        0.002589         4
         4         2         1        17     9        0.000000        0.006823         1
         4         2         1        17     9      180.000000        0.001968         2
         4         2         1        17     9        0.000000        0.526648         3
         4         2         1        17     9      180.000000       -0.002031         4
         4         2         1        18     9        0.000000        0.006823         1
         4         2         1        18     9      180.000000        0.001968         2
         4         2         1        18     9        0.000000        0.526648         3
         4         2         1        18     9      180.000000       -0.002031         4
         4         2         1        19     9        0.000000        0.006823         1
         4         2         1        19     9      180.000000        0.001968         2
         4         2         1        19     9        0.000000        0.526648         3
         4         2         1        19     9      180.000000       -0.002031         4
         4         2         3        20     9        0.000000        0.006823         1
         4         2         3        20     9      180.000000        0.001968         2
         4         2         3        20     9        0.000000        0.526648         3
         4         2         3        20     9      180.000000       -0.002031         4
         4         2         3        21     9        0.000000        0.006823         1
         4         2         3        21     9      180.000000        0.001968         2
         4         2         3        21     9        0.000000        0.526648         3
         4         2         3        21     9      180.000000       -0.002031         4
         4         2         3        22     9        0.000000        0.006823         1
         4         2         3        22     9      180.000000        0.001968         2
         4         2         3        22     9        0.000000        0.526648         3
         4         2         3        22     9      180.000000       -0.002031         4
         4         2         5         6     9        0.000000      -15.971682         1
         4         2         5         6     9      180.000000        0.338545         2
         4         2         5         6     9        0.000000        1.680131         3
         4         2         5         6     9      180.000000        0.002589         4
         5         2         1        17     9        0.000000        1.293962         1
         5         2         1        17     9      180.000000        0.085404         2
         5         2         1        17     9        0.000000        0.093915         3
         5         2         1        17     9      180.000000       -0.000818         4
         5         2         1        18     9        0.000000        1.293962         1
         5         2         1        18     9      180.000000        0.085404         2
         5         2         1        18     9        0.000000        0.093915         3
         5         2         1        18     9      180.000000       -0.000818         4
         5         2         1        19     9        0.000000        1.293962         1
         5         2         1        19     9      180.000000        0.085404         2
         5         2         1        19     9        0.000000        0.093915         3
         5         2         1        19     9      180.000000       -0.000818         4
         5         2         3        20     9        0.000000        1.293962         1
         5         2         3        20     9      180.000000        0.085404         2
         5         2         3        20     9        0.000000        0.093915         3
         5         2         3        20     9      180.000000       -0.000818         4
         5         2         3        21     9        0.000000        1.293962         1
         5         2         3        21     9      180.000000        0.085404         2
         5         2         3        21     9        0.000000        0.093915         3
         5         2         3        21     9      180.000000       -0.000818         4
         5         2         3        22     9        0.000000        1.293962         1
         5         2         3        22     9      180.000000        0.085404         2
         5         2         3        22     9        0.000000        0.093915         3
         5         2         3        22     9      180.000000       -0.000818         4
         5         2         4        23     9        0.000000        1.293962         1
         5         2         4        23     9      180.000000        0.085402         2
         5         2         4        23     9        0.000000        0.093912         3
         5         2         4        23     9      180.000000       -0.000817         4
         5         2         4        24     9        0.000000        1.293962         1
         5         2         4        24     9      180.000000        0.085402         2
         5         2         4        24     9        0.000000        0.093912         3
         5         2         4        24     9      180.000000       -0.000817         4
         5         2         4        25     9        0.000000        1.293962         1
         5         2         4        25     9      180.000000        0.085402         2
         5         2         4        25     9        0.000000        0.093912         3
         5         2         4        25     9      180.000000       -0.000817         4
         5         6         7         8     9        0.000000       -1.427823         1
         5         6         7         8     9      180.000000       -6.227704         2
         5         6         7         8     9        0.000000        0.276237         3
         5         6         7         8     9      180.000000       -0.008437         4
         5         6        12        13     9        0.000000       -1.427823         1
         5         6        12        13     9      180.000000       -6.227704         2
         5         6        12        13     9        0.000000        0.276237         3
         5         6        12        13     9      180.000000       -0.008437         4
         6         7         8         9     9        0.000000      -15.971706         1
         6         7         8         9     9      180.000000        0.338540         2
         6         7         8         9     9        0.000000        1.680147         3
         6         7         8         9     9      180.000000        0.002590         4
         6         7         8        10     9        0.000000      -15.971706         1
         6         7         8        10     9      180.000000        0.338540         2
         6         7         8        10     9        0.000000        1.680147         3
         6         7         8        10     9      180.000000        0.002590         4
         6         7         8        11     9        0.000000      -15.971706         1
         6         7         8        11     9      180.000000        0.338540         2
         6         7         8        11     9        0.000000        1.680147         3
         6         7         8        11     9      180.000000        0.002590         4
         6        12        13        14     9        0.000000      -15.971706         1
         6        12        13        14     9      180.000000        0.338540         2
         6        12        13        14     9        0.000000        1.680147         3
         6        12        13        14     9      180.000000        0.002590         4
         6        12        13        15     9        0.000000      -15.971706         1
         6        12        13        15     9      180.000000        0.338540         2
         6        12        13        15     9        0.000000        1.680147         3
         6        12        13        15     9      180.000000        0.002590         4
         6        12        13        16     9        0.000000      -15.971706         1
         6        12        13        16     9      180.000000        0.338540         2
         6        12        13        16     9        0.000000        1.680147         3
         6        12        13        16     9      180.000000        0.002590         4
         7         6        12        13     9        0.000000       -1.427825         1
         7         6        12        13     9      180.000000       -6.227688         2
         7         6        12        13     9        0.000000        0.276230         3
         7         6        12        13     9      180.000000       -0.008436         4
         7         8         9        26     9        0.000000        1.293965         1
         7         8         9        26     9      180.000000        0.085404         2
         7         8         9        26     9        0.000000        0.093917         3
         7         8         9        26     9      180.000000       -0.000817         4
         7         8         9        27     9        0.000000        1.293965         1
         7         8         9        27     9      180.000000        0.085404         2
         7         8         9        27     9        0.000000        0.093917         3
         7         8         9        27     9      180.000000       -0.000817         4
         7         8         9        28     9        0.000000        1.293965         1
         7         8         9        28     9      180.000000        0.085404         2
         7         8         9        28     9        0.000000        0.093917         3
         7         8         9        28     9      180.000000       -0.000817         4
         7         8        10        29     9        0.000000        1.293965         1
         7         8        10        29     9      180.000000        0.085404         2
         7         8        10        29     9        0.000000        0.093917         3
         7         8        10        29     9      180.000000       -0.000817         4
         7         8        10        30     9        0.000000        1.293965         1
         7         8        10        30     9      180.000000        0.085404         2
         7         8        10        30     9        0.000000        0.093917         3
         7         8        10        30     9      180.000000       -0.000817         4
         7         8        10        31     9        0.000000        1.293965         1
         7         8        10        31     9      180.000000        0.085404         2
         7         8        10        31     9        0.000000        0.093917         3
         7         8        10        31     9      180.000000       -0.000817         4
         7         8        11        32     9        0.000000        1.293965         1
         7         8        11        32     9      180.000000        0.085404         2
         7         8        11        32     9        0.000000        0.093917         3
         7         8        11        32     9      180.000000       -0.000817         4
         7         8        11        33     9        0.000000        1.293965         1
         7         8        11        33     9      180.000000        0.085404         2
         7         8        11        33     9        0.000000        0.093917         3
         7         8        11        33     9      180.000000       -0.000817         4
         7         8        11        34     9        0.000000        1.293963         1
         7         8        11        34     9      180.000000        0.085405         2
         7         8        11        34     9        0.000000        0.093917         3
         7         8        11        34     9      180.000000       -0.000817         4
         8         7         6        12     9        0.000000       -1.427825         1
         8         7         6        12     9      180.000000       -6.227688         2
         8         7         6        12     9        0.000000        0.276230         3
         8         7         6        12     9      180.000000       -0.008436         4
         9         8        10        29     9        0.000000        0.006823         1
         9         8        10        29     9      180.000000        0.001969         2
         9         8        10        29     9        0.000000        0.526653         3
         9         8        10        29     9      180.000000       -0.002031         4
         9         8        10        30     9        0.000000        0.006823         1
         9         8        10        30     9      180.000000        0.001969         2
         9         8        10        30     9        0.000000        0.526653         3
         9         8        10        30     9      180.000000       -0.002031         4
         9         8        10        31     9        0.000000        0.006823         1
         9         8        10        31     9      180.000000        0.001969         2
         9         8        10        31     9        0.000000        0.526653         3
         9         8        10        31     9      180.000000       -0.002031         4
         9         8        11        32     9        0.000000        0.006823         1
         9         8        11        32     9      180.000000        0.001969         2
         9         8        11        32     9        0.000000        0.526653         3
         9         8        11        32     9      180.000000       -0.002031         4
         9         8        11        33     9        0.000000        0.006823         1
         9         8        11        33     9      180.000000        0.001969         2
         9         8        11        33     9        0.000000        0.526653         3
         9         8        11        33     9      180.000000       -0.002031         4
         9         8        11        34     9        0.000000        0.006823         1
         9         8        11        34     9      180.000000        0.001968         2
         9         8        11        34     9        0.000000        0.526649         3
         9         8        11        34     9      180.000000       -0.002030         4
        10         8         9        26     9        0.000000        0.006823         1
        10         8         9        26     9      180.000000        0.001969         2
        10         8         9        26     9        0.000000        0.526653         3
        10         8         9        26     9      180.000000       -0.002031         4
        10         8         9        27     9        0.000000        0.006823         1
        10         8         9        27     9      180.000000        0.001969         2
        10         8         9        27     9        0.000000        0.526653         3
        10         8         9        27     9      180.000000       -0.002031         4
        10         8         9        28     9        0.000000        0.006823         1
        10         8         9        28     9      180.000000        0.001969         2
        10         8         9        28     9        0.000000        0.526653         3
        10         8         9        28     9      180.000000       -0.002031         4
        10         8        11        32     9        0.000000        0.006823         1
        10         8        11        32     9      180.000000        0.001969         2
        10         8        11        32     9        0.000000        0.526653         3
        10         8        11        32     9      180.000000       -0.002031         4
        10         8        11        33     9        0.000000        0.006823         1
        10         8        11        33     9      180.000000        0.001969         2
        10         8        11        33     9        0.000000        0.526653         3
        10         8        11        33     9      180.000000       -0.002031         4
        10         8        11        34     9        0.000000        0.006823         1
        10         8        11        34     9      180.000000        0.001968         2
        10         8        11        34     9        0.000000        0.526649         3
        10         8        11        34     9      180.000000       -0.002030         4
        11         8         9        26     9        0.000000        0.006823         1
        11         8         9        26     9      180.000000        0.001969         2
        11         8         9        26     9        0.000000        0.526653         3
        11         8         9        26     9      180.000000       -0.002031         4
        11         8         9        27     9        0.000000        0.006823         1
        11         8         9        27     9      180.000000        0.001969         2
        11         8         9        27     9        0.000000        0.526653         3
        11         8         9        27     9      180.000000       -0.002031         4
        11         8         9        28     9        0.000000        0.006823         1
        11         8         9        28     9      180.000000        0.001969         2
        11         8         9        28     9        0.000000        0.526653         3
        11         8         9        28     9      180.000000       -0.002031         4
        11         8        10        29     9        0.000000        0.006823         1
        11         8        10        29     9      180.000000        0.001969         2
        11         8        10        29     9        0.000000        0.526653         3
        11         8        10        29     9      180.000000       -0.002031         4
        11         8        10        30     9        0.000000        0.006823         1
        11         8        10        30     9      180.000000        0.001969         2
        11         8        10        30     9        0.000000        0.526653         3
        11         8        10        30     9      180.000000       -0.002031         4
        11         8        10        31     9        0.000000        0.006823         1
        11         8        10        31     9      180.000000        0.001969         2
        11         8        10        31     9        0.000000        0.526653         3
        11         8        10        31     9      180.000000       -0.002031         4
        12        13        14        35     9        0.000000        1.293963         1
        12        13        14        35     9      180.000000        0.085405         2
        12        13        14        35     9        0.000000        0.093917         3
        12        13        14        35     9      180.000000       -0.000817         4
        12        13        14        36     9        0.000000        1.293963         1
        12        13        14        36     9      180.000000        0.085405         2
        12        13        14        36     9        0.000000        0.093917         3
        12        13        14        36     9      180.000000       -0.000817         4
        12        13        14        37     9        0.000000        1.293963         1
        12        13        14        37     9      180.000000        0.085405         2
        12        13        14        37     9        0.000000        0.093917         3
        12        13        14        37     9      180.000000       -0.000817         4
        12        13        15        38     9        0.000000        1.293963         1
        12        13        15        38     9      180.000000        0.085405         2
        12        13        15        38     9        0.000000        0.093917         3
        12        13        15        38     9      180.000000       -0.000817         4
        12        13        15        39     9        0.000000        1.293963         1
        12        13        15        39     9      180.000000        0.085405         2
        12        13        15        39     9        0.000000        0.093917         3
        12        13        15        39     9      180.000000       -0.000817         4
        12        13        15        40     9        0.000000        1.293963         1
        12        13        15        40     9      180.000000        0.085405         2
        12        13        15        40     9        0.000000        0.093917         3
        12        13        15        40     9      180.000000       -0.000817         4
        12        13        16        41     9        0.000000        1.293963         1
        12        13        16        41     9      180.000000        0.085405         2
        12        13        16        41     9        0.000000        0.093917         3
        12        13        16        41     9      180.000000       -0.000817         4
        12        13        16        42     9        0.000000        1.293963         1
        12        13        16        42     9      180.000000        0.085405         2
        12        13        16        42     9        0.000000        0.093917         3
        12        13        16        42     9      180.000000       -0.000817         4
        12        13        16        43     9        0.000000        1.293963         1
        12        13        16        43     9      180.000000        0.085405         2
        12        13        16        43     9        0.000000        0.093917         3
        12        13        16        43     9      180.000000       -0.000817         4
        14        13        15        38     9        0.000000        0.006823         1
        14        13        15        38     9      180.000000        0.001968         2
        14        13        15        38     9        0.000000        0.526649         3
        14        13        15        38     9      180.000000       -0.002030         4
        14        13        15        39     9        0.000000        0.006823         1
        14        13        15        39     9      180.000000        0.001968         2
        14        13        15        39     9        0.000000        0.526649         3
        14        13        15        39     9      180.000000       -0.002030         4
        14        13        15        40     9        0.000000        0.006823         1
        14        13        15        40     9      180.000000        0.001968         2
        14        13        15        40     9        0.000000        0.526649         3
        14        13        15        40     9      180.000000       -0.002030         4
        14        13        16        41     9        0.000000        0.006823         1
        14        13        16        41     9      180.000000        0.001968         2
        14        13        16        41     9        0.000000        0.526649         3
        14        13        16        41     9      180.000000       -0.002030         4
        14        13        16        42     9        0.000000        0.006823         1
        14        13        16        42     9      180.000000        0.001968         2
        14        13        16        42     9        0.000000        0.526649         3
        14        13        16        42     9      180.000000       -0.002030         4
        14        13        16        43     9        0.000000        0.006823         1
        14        13        16        43     9      180.000000        0.001968         2
        14        13        16        43     9        0.000000        0.526649         3
        14        13        16        43     9      180.000000       -0.002030         4
        15        13        14        35     9        0.000000        0.006823         1
        15        13        14        35     9      180.000000        0.001968         2
        15        13        14        35     9        0.000000        0.526649         3
        15        13        14        35     9      180.000000       -0.002030         4
        15        13        14        36     9        0.000000        0.006823         1
        15        13        14        36     9      180.000000        0.001968         2
        15        13        14        36     9        0.000000        0.526649         3
        15        13        14        36     9      180.000000       -0.002030         4
        15        13        14        37     9        0.000000        0.006823         1
        15        13        14        37     9      180.000000        0.001968         2
        15        13        14        37     9        0.000000        0.526649         3
        15        13        14        37     9      180.000000       -0.002030         4
        15        13        16        41     9        0.000000        0.006823         1
        15        13        16        41     9      180.000000        0.001968         2
        15        13        16        41     9        0.000000        0.526649         3
        15        13        16        41     9      180.000000       -0.002030         4
        15        13        16        42     9        0.000000        0.006823         1
        15        13        16        42     9      180.000000        0.001968         2
        15        13        16        42     9        0.000000        0.526649         3
        15        13        16        42     9      180.000000       -0.002030         4
        15        13        16        43     9        0.000000        0.006823         1
        15        13        16        43     9      180.000000        0.001968         2
        15        13        16        43     9        0.000000        0.526649         3
        15        13        16        43     9      180.000000       -0.002030         4
        16        13        14        35     9        0.000000        0.006823         1
        16        13        14        35     9      180.000000        0.001968         2
        16        13        14        35     9        0.000000        0.526649         3
        16        13        14        35     9      180.000000       -0.002030         4
        16        13        14        36     9        0.000000        0.006823         1
        16        13        14        36     9      180.000000        0.001968         2
        16        13        14        36     9        0.000000        0.526649         3
        16        13        14        36     9      180.000000       -0.002030         4
        16        13        14        37     9        0.000000        0.006823         1
        16        13        14        37     9      180.000000        0.001968         2
        16        13        14        37     9        0.000000        0.526649         3
        16        13        14        37     9      180.000000       -0.002030         4
        16        13        15        38     9        0.000000        0.006823         1
        16        13        15        38     9      180.000000        0.001968         2
        16        13        15        38     9        0.000000        0.526649         3
        16        13        15        38     9      180.000000       -0.002030         4
        16        13        15        39     9        0.000000        0.006823         1
        16        13        15        39     9      180.000000        0.001968         2
        16        13        15        39     9        0.000000        0.526649         3
        16        13        15        39     9      180.000000       -0.002030         4
        16        13        15        40     9        0.000000        0.006823         1
        16        13        15        40     9      180.000000        0.001968         2
        16        13        15        40     9        0.000000        0.526649         3
        16        13        15        40     9      180.000000       -0.002030         4

[ pairs ]
;       ai        aj funct
         1         6     1
         1        20     1
         1        21     1
         1        22     1
         1        23     1
         1        24     1
         1        25     1
         2         7     1
         2        12     1
         3         6     1
         3        17     1
         3        18     1
         3        19     1
         3        23     1
         3        24     1
         3        25     1
         4         6     1
         4        17     1
         4        18     1
         4        19     1
         4        20     1
         4        21     1
         4        22     1
         5         8     1
         5        13     1
         5        17     1
         5        18     1
         5        19     1
         5        20     1
         5        21     1
         5        22     1
         5        23     1
         5        24     1
         5        25     1
         6         9     1
         6        10     1
         6        11     1
         6        14     1
         6        15     1
         6        16     1
         7        13     1
         7        26     1
         7        27     1
         7        28     1
         7        29     1
         7        30     1
         7        31     1
         7        32     1
         7        33     1
         7        34     1
         8        12     1
         9        29     1
         9        30     1
         9        31     1
         9        32     1
         9        33     1
         9        34     1
        10        26     1
        10        27     1
        10        28     1
        10        32     1
        10        33     1
        10        34     1
        11        26     1
        11        27     1
        11        28     1
        11        29     1
        11        30     1
        11        31     1
        12        35     1
        12        36     1
        12        37     1
        12        38     1
        12        39     1
        12        40     1
        12        41     1
        12        42     1
        12        43     1
        14        38     1
        14        39     1
        14        40     1
        14        41     1
        14        42     1
        14        43     1
        15        35     1
        15        36     1
        15        37     1
        15        41     1
        15        42     1
        15        43     1
        16        35     1
        16        36     1
        16        37     1
        16        38     1
        16        39     1
        16        40     1
