A Gromacs structure file written by ASE 
   43
    1TMSPi    C    1   0.379  -0.137  -0.120  0.0000  0.0000  0.0000
    1TMSPi   Si    2   0.273  -0.048   0.009  0.0000  0.0000  0.0000
    1TMSPi    C    3   0.314  -0.125   0.176  0.0000  0.0000  0.0000
    1TMSPi    C    4   0.328   0.133   0.010  0.0000  0.0000  0.0000
    1TMSPi    O    5   0.112  -0.067  -0.033  0.0000  0.0000  0.0000
    1TMSPi    P    6   0.009   0.007   0.067  0.0000  0.0000  0.0000
    1TMSPi    O    7  -0.105  -0.105   0.087  0.0000  0.0000  0.0000
    1TMSPi   Si    8  -0.157  -0.209  -0.033  0.0000  0.0000  0.0000
    1TMSPi    C    9  -0.185  -0.131  -0.201  0.0000  0.0000  0.0000
    1TMSPi    C   10  -0.324  -0.282   0.021  0.0000  0.0000  0.0000
    1TMSPi    C   11  -0.039  -0.356  -0.053  0.0000  0.0000  0.0000
    1TMSPi    O   12  -0.064   0.104  -0.039  0.0000  0.0000  0.0000
    1TMSPi   Si   13  -0.127   0.244   0.028  0.0000  0.0000  0.0000
    1TMSPi    C   14   0.004   0.353   0.106  0.0000  0.0000  0.0000
    1TMSPi    C   15  -0.208   0.346  -0.110  0.0000  0.0000  0.0000
    1TMSPi    C   16  -0.262   0.209   0.155  0.0000  0.0000  0.0000
    1TMSPi    H   17   0.486  -0.127  -0.095  0.0000  0.0000  0.0000
    1TMSPi    H   18   0.354  -0.243  -0.123  0.0000  0.0000  0.0000
    1TMSPi    H   19   0.362  -0.094  -0.219  0.0000  0.0000  0.0000
    1TMSPi    H   20   0.422  -0.121   0.194  0.0000  0.0000  0.0000
    1TMSPi    H   21   0.264  -0.072   0.257  0.0000  0.0000  0.0000
    1TMSPi    H   22   0.282  -0.230   0.178  0.0000  0.0000  0.0000
    1TMSPi    H   23   0.281   0.188   0.093  0.0000  0.0000  0.0000
    1TMSPi    H   24   0.436   0.139   0.023  0.0000  0.0000  0.0000
    1TMSPi    H   25   0.301   0.182  -0.084  0.0000  0.0000  0.0000
    1TMSPi    H   26  -0.227  -0.204  -0.271  0.0000  0.0000  0.0000
    1TMSPi    H   27  -0.091  -0.094  -0.244  0.0000  0.0000  0.0000
    1TMSPi    H   28  -0.255  -0.047  -0.194  0.0000  0.0000  0.0000
    1TMSPi    H   29  -0.313  -0.335   0.116  0.0000  0.0000  0.0000
    1TMSPi    H   30  -0.360  -0.353  -0.054  0.0000  0.0000  0.0000
    1TMSPi    H   31  -0.398  -0.203   0.032  0.0000  0.0000  0.0000
    1TMSPi    H   32  -0.019  -0.402   0.044  0.0000  0.0000  0.0000
    1TMSPi    H   33   0.056  -0.324  -0.097  0.0000  0.0000  0.0000
    1TMSPi    H   34  -0.084  -0.431  -0.119  0.0000  0.0000  0.0000
    1TMSPi    H   35   0.084   0.375   0.034  0.0000  0.0000  0.0000
    1TMSPi    H   36  -0.040   0.448   0.139  0.0000  0.0000  0.0000
    1TMSPi    H   37   0.049   0.305   0.194  0.0000  0.0000  0.0000
    1TMSPi    H   38  -0.288   0.288  -0.158  0.0000  0.0000  0.0000
    1TMSPi    H   39  -0.250   0.438  -0.070  0.0000  0.0000  0.0000
    1TMSPi    H   40  -0.133   0.372  -0.186  0.0000  0.0000  0.0000
    1TMSPi    H   41  -0.340   0.145   0.112  0.0000  0.0000  0.0000
    1TMSPi    H   42  -0.309   0.303   0.187  0.0000  0.0000  0.0000
    1TMSPi    H   43  -0.221   0.160   0.244  0.0000  0.0000  0.0000

