; ITP file created by ByteFF-ML, 2026-04-09 23:00:30.230093

[ moleculetype ]
;name             nrexcl
 SIO4                  3

[ atoms ]
;       nr            type      resi   res      atom      cgnr      charge          mass ; qtot
         1            c0bf         1   UNL        c0         1    -0.10093       12.0110 ; qtot   -0.101
         2            c1bf         1   UNL        c1         2    -0.04604       12.0110 ; qtot   -0.147
         3            c2bf         1   UNL        c2         3     0.21457       12.0110 ; qtot    0.068
         4            o3bf         1   UNL        o3         4    -0.55468       15.9990 ; qtot   -0.487
         5           si4bf         1   UNL       si4         5     1.09895       28.0860 ; qtot    0.612
         6            c5bf         1   UNL        c5         6    -0.58022       12.0110 ; qtot    0.032
         7            c6bf         1   UNL        c6         7    -0.58022       12.0110 ; qtot   -0.549
         8            c7bf         1   UNL        c7         8    -0.58022       12.0110 ; qtot   -1.129
         9            h8bf         1   UNL        h8         9     0.03416        1.0080 ; qtot   -1.095
        10            h9bf         1   UNL        h9        10     0.03416        1.0080 ; qtot   -1.060
        11           h10bf         1   UNL       h10        11     0.03416        1.0080 ; qtot   -1.026
        12           h11bf         1   UNL       h11        12     0.03501        1.0080 ; qtot   -0.991
        13           h12bf         1   UNL       h12        13     0.03501        1.0080 ; qtot   -0.956
        14           h13bf         1   UNL       h13        14    -0.01979        1.0080 ; qtot   -0.976
        15           h14bf         1   UNL       h14        15    -0.01979        1.0080 ; qtot   -0.996
        16           h15bf         1   UNL       h15        16     0.11065        1.0080 ; qtot   -0.885
        17           h16bf         1   UNL       h16        17     0.11065        1.0080 ; qtot   -0.775
        18           h17bf         1   UNL       h17        18     0.11065        1.0080 ; qtot   -0.664
        19           h18bf         1   UNL       h18        19     0.11065        1.0080 ; qtot   -0.553
        20           h19bf         1   UNL       h19        20     0.11065        1.0080 ; qtot   -0.443
        21           h20bf         1   UNL       h20        21     0.11065        1.0080 ; qtot   -0.332
        22           h21bf         1   UNL       h21        22     0.11065        1.0080 ; qtot   -0.221
        23           h22bf         1   UNL       h22        23     0.11065        1.0080 ; qtot   -0.111
        24           h23bf         1   UNL       h23        24     0.11067        1.0080 ; qtot    0.000

[ bonds ]
;       ai        aj funct               r               k
         1         2     1        0.153232   191975.985840
         1         9     1        0.109556   298295.399414
         1        10     1        0.109556   298295.399414
         1        11     1        0.109556   298295.399414
         2         3     1        0.152537   190626.579443
         2        12     1        0.109675   293886.468555
         2        13     1        0.109675   293886.443018
         3         4     1        0.142655   198198.408984
         3        14     1        0.109962   282605.603711
         3        15     1        0.109962   282605.603711
         4         5     1        0.167527   214045.449438
         5         6     1        0.187920   158360.824805
         5         7     1        0.187920   158360.799268
         5         8     1        0.187920   158360.799268
         6        16     1        0.109605   305747.510986
         6        17     1        0.109605   305747.510986
         6        18     1        0.109605   305747.510986
         7        19     1        0.109605   305747.536523
         7        20     1        0.109605   305747.485449
         7        21     1        0.109605   305747.485449
         8        22     1        0.109605   305747.485449
         8        23     1        0.109605   305747.485449
         8        24     1        0.109605   305747.485449

[ angles ]
;       ai        aj        ak funct           theta             cth
         1         2         3     1      112.721306      601.814670
         1         2        12     1      110.061546      510.386615
         1         2        13     1      110.061546      510.386615
         2         1         9     1      111.136238      519.415835
         2         1        10     1      111.136238      519.415835
         2         1        11     1      111.136238      519.415835
         2         3         4     1      110.373268      593.760840
         2         3        14     1      109.915695      494.888175
         2         3        15     1      109.915695      494.888175
         3         2        12     1      108.535812      502.222944
         3         2        13     1      108.535812      502.222912
         3         4         5     1      123.561096      259.124123
         4         3        14     1      109.828186      446.182779
         4         3        15     1      109.828186      446.182779
         4         5         6     1      108.357262      501.463183
         4         5         7     1      108.357262      501.462992
         4         5         8     1      108.357262      501.462992
         5         6        16     1      111.248154      420.365049
         5         6        17     1      111.248154      420.365049
         5         6        18     1      111.248154      420.365049
         5         7        19     1      111.248154      420.365017
         5         7        20     1      111.248154      420.365017
         5         7        21     1      111.248146      420.365049
         5         8        22     1      111.248146      420.365049
         5         8        23     1      111.248146      420.365049
         5         8        24     1      111.248146      420.365049
         6         5         7     1      110.419815      630.040645
         6         5         8     1      110.419815      630.040645
         7         5         8     1      110.419815      630.040645
         9         1        10     1      107.765732      365.008289
         9         1        11     1      107.765732      365.008289
        10         1        11     1      107.765732      365.008289
        12         2        13     1      106.690414      360.547275
        14         3        15     1      107.384140      348.065949
        16         6        17     1      107.732803      377.468291
        16         6        18     1      107.732803      377.468291
        17         6        18     1      107.732803      377.468291
        19         7        20     1      107.732811      377.468291
        19         7        21     1      107.732811      377.468291
        20         7        21     1      107.732811      377.468291
        22         8        23     1      107.732811      377.468227
        22         8        24     1      107.732811      377.468259
        23         8        24     1      107.732811      377.468227

[ dihedrals ] ; propers for gromacs 4.5 or higher, use funct 9
;       ai        aj        ak        al funct           phase               k        pn
         1         2         3         4     9        0.000000       -0.019847         1
         1         2         3         4     9      180.000000        0.006008         2
         1         2         3         4     9        0.000000        0.683482         3
         1         2         3         4     9      180.000000        0.000361         4
         1         2         3        14     9        0.000000        0.003610         1
         1         2         3        14     9      180.000000        0.010961         2
         1         2         3        14     9        0.000000        0.636139         3
         1         2         3        14     9      180.000000       -0.000876         4
         1         2         3        15     9        0.000000        0.003610         1
         1         2         3        15     9      180.000000        0.010961         2
         1         2         3        15     9        0.000000        0.636139         3
         1         2         3        15     9      180.000000       -0.000876         4
         2         3         4         5     9        0.000000        0.054346         1
         2         3         4         5     9      180.000000        0.148959         2
         2         3         4         5     9        0.000000        1.533036         3
         2         3         4         5     9      180.000000       -0.008806         4
         3         2         1         9     9        0.000000        0.001943         1
         3         2         1         9     9      180.000000       -0.002375         2
         3         2         1         9     9        0.000000        0.540541         3
         3         2         1         9     9      180.000000       -0.000405         4
         3         2         1        10     9        0.000000        0.001943         1
         3         2         1        10     9      180.000000       -0.002375         2
         3         2         1        10     9        0.000000        0.540541         3
         3         2         1        10     9      180.000000       -0.000405         4
         3         2         1        11     9        0.000000        0.001943         1
         3         2         1        11     9      180.000000       -0.002375         2
         3         2         1        11     9        0.000000        0.540541         3
         3         2         1        11     9      180.000000       -0.000405         4
         3         4         5         6     9        0.000000       -3.564982         1
         3         4         5         6     9      180.000000       -0.382408         2
         3         4         5         6     9        0.000000        3.096343         3
         3         4         5         6     9      180.000000        0.017531         4
         3         4         5         7     9        0.000000       -3.564982         1
         3         4         5         7     9      180.000000       -0.382408         2
         3         4         5         7     9        0.000000        3.096343         3
         3         4         5         7     9      180.000000        0.017531         4
         3         4         5         8     9        0.000000       -3.564982         1
         3         4         5         8     9      180.000000       -0.382408         2
         3         4         5         8     9        0.000000        3.096343         3
         3         4         5         8     9      180.000000        0.017531         4
         4         3         2        12     9        0.000000        1.009003         1
         4         3         2        12     9      180.000000       -0.029158         2
         4         3         2        12     9        0.000000        0.040781         3
         4         3         2        12     9      180.000000       -0.006754         4
         4         3         2        13     9        0.000000        1.009001         1
         4         3         2        13     9      180.000000       -0.029156         2
         4         3         2        13     9        0.000000        0.040781         3
         4         3         2        13     9      180.000000       -0.006754         4
         4         5         6        16     9        0.000000        1.053027         1
         4         5         6        16     9      180.000000       -0.006875         2
         4         5         6        16     9        0.000000        0.045909         3
         4         5         6        16     9      180.000000       -0.002087         4
         4         5         6        17     9        0.000000        1.053027         1
         4         5         6        17     9      180.000000       -0.006875         2
         4         5         6        17     9        0.000000        0.045909         3
         4         5         6        17     9      180.000000       -0.002087         4
         4         5         6        18     9        0.000000        1.053027         1
         4         5         6        18     9      180.000000       -0.006875         2
         4         5         6        18     9        0.000000        0.045909         3
         4         5         6        18     9      180.000000       -0.002087         4
         4         5         7        19     9        0.000000        1.053026         1
         4         5         7        19     9      180.000000       -0.006876         2
         4         5         7        19     9        0.000000        0.045908         3
         4         5         7        19     9      180.000000       -0.002088         4
         4         5         7        20     9        0.000000        1.053026         1
         4         5         7        20     9      180.000000       -0.006876         2
         4         5         7        20     9        0.000000        0.045908         3
         4         5         7        20     9      180.000000       -0.002088         4
         4         5         7        21     9        0.000000        1.053026         1
         4         5         7        21     9      180.000000       -0.006876         2
         4         5         7        21     9        0.000000        0.045908         3
         4         5         7        21     9      180.000000       -0.002088         4
         4         5         8        22     9        0.000000        1.053025         1
         4         5         8        22     9      180.000000       -0.006875         2
         4         5         8        22     9        0.000000        0.045909         3
         4         5         8        22     9      180.000000       -0.002088         4
         4         5         8        23     9        0.000000        1.053025         1
         4         5         8        23     9      180.000000       -0.006875         2
         4         5         8        23     9        0.000000        0.045909         3
         4         5         8        23     9      180.000000       -0.002088         4
         4         5         8        24     9        0.000000        1.053025         1
         4         5         8        24     9      180.000000       -0.006875         2
         4         5         8        24     9        0.000000        0.045909         3
         4         5         8        24     9      180.000000       -0.002088         4
         5         4         3        14     9        0.000000        0.036453         1
         5         4         3        14     9      180.000000       -0.037049         2
         5         4         3        14     9        0.000000        1.503893         3
         5         4         3        14     9      180.000000       -0.002200         4
         5         4         3        15     9        0.000000        0.036453         1
         5         4         3        15     9      180.000000       -0.037049         2
         5         4         3        15     9        0.000000        1.503893         3
         5         4         3        15     9      180.000000       -0.002200         4
         6         5         7        19     9        0.000000        0.004943         1
         6         5         7        19     9      180.000000       -0.000181         2
         6         5         7        19     9        0.000000        0.531996         3
         6         5         7        19     9      180.000000       -0.000936         4
         6         5         7        20     9        0.000000        0.004943         1
         6         5         7        20     9      180.000000       -0.000181         2
         6         5         7        20     9        0.000000        0.531996         3
         6         5         7        20     9      180.000000       -0.000936         4
         6         5         7        21     9        0.000000        0.004943         1
         6         5         7        21     9      180.000000       -0.000181         2
         6         5         7        21     9        0.000000        0.531996         3
         6         5         7        21     9      180.000000       -0.000936         4
         6         5         8        22     9        0.000000        0.004943         1
         6         5         8        22     9      180.000000       -0.000181         2
         6         5         8        22     9        0.000000        0.531996         3
         6         5         8        22     9      180.000000       -0.000936         4
         6         5         8        23     9        0.000000        0.004943         1
         6         5         8        23     9      180.000000       -0.000180         2
         6         5         8        23     9        0.000000        0.531995         3
         6         5         8        23     9      180.000000       -0.000936         4
         6         5         8        24     9        0.000000        0.004943         1
         6         5         8        24     9      180.000000       -0.000180         2
         6         5         8        24     9        0.000000        0.531995         3
         6         5         8        24     9      180.000000       -0.000936         4
         7         5         6        16     9        0.000000        0.004943         1
         7         5         6        16     9      180.000000       -0.000180         2
         7         5         6        16     9        0.000000        0.531994         3
         7         5         6        16     9      180.000000       -0.000937         4
         7         5         6        17     9        0.000000        0.004943         1
         7         5         6        17     9      180.000000       -0.000180         2
         7         5         6        17     9        0.000000        0.531994         3
         7         5         6        17     9      180.000000       -0.000937         4
         7         5         6        18     9        0.000000        0.004943         1
         7         5         6        18     9      180.000000       -0.000180         2
         7         5         6        18     9        0.000000        0.531994         3
         7         5         6        18     9      180.000000       -0.000937         4
         7         5         8        22     9        0.000000        0.004943         1
         7         5         8        22     9      180.000000       -0.000180         2
         7         5         8        22     9        0.000000        0.531995         3
         7         5         8        22     9      180.000000       -0.000936         4
         7         5         8        23     9        0.000000        0.004943         1
         7         5         8        23     9      180.000000       -0.000180         2
         7         5         8        23     9        0.000000        0.531995         3
         7         5         8        23     9      180.000000       -0.000936         4
         7         5         8        24     9        0.000000        0.004943         1
         7         5         8        24     9      180.000000       -0.000180         2
         7         5         8        24     9        0.000000        0.531995         3
         7         5         8        24     9      180.000000       -0.000936         4
         8         5         6        16     9        0.000000        0.004943         1
         8         5         6        16     9      180.000000       -0.000180         2
         8         5         6        16     9        0.000000        0.531993         3
         8         5         6        16     9      180.000000       -0.000937         4
         8         5         6        17     9        0.000000        0.004943         1
         8         5         6        17     9      180.000000       -0.000180         2
         8         5         6        17     9        0.000000        0.531993         3
         8         5         6        17     9      180.000000       -0.000937         4
         8         5         6        18     9        0.000000        0.004943         1
         8         5         6        18     9      180.000000       -0.000180         2
         8         5         6        18     9        0.000000        0.531993         3
         8         5         6        18     9      180.000000       -0.000937         4
         8         5         7        19     9        0.000000        0.004943         1
         8         5         7        19     9      180.000000       -0.000181         2
         8         5         7        19     9        0.000000        0.531995         3
         8         5         7        19     9      180.000000       -0.000937         4
         8         5         7        20     9        0.000000        0.004943         1
         8         5         7        20     9      180.000000       -0.000181         2
         8         5         7        20     9        0.000000        0.531995         3
         8         5         7        20     9      180.000000       -0.000937         4
         8         5         7        21     9        0.000000        0.004943         1
         8         5         7        21     9      180.000000       -0.000181         2
         8         5         7        21     9        0.000000        0.531995         3
         8         5         7        21     9      180.000000       -0.000937         4
         9         1         2        12     9        0.000000       -0.003591         1
         9         1         2        12     9      180.000000        0.000157         2
         9         1         2        12     9        0.000000        0.498214         3
         9         1         2        12     9      180.000000       -0.002038         4
         9         1         2        13     9        0.000000       -0.003591         1
         9         1         2        13     9      180.000000        0.000160         2
         9         1         2        13     9        0.000000        0.498212         3
         9         1         2        13     9      180.000000       -0.002038         4
        10         1         2        12     9        0.000000       -0.003590         1
        10         1         2        12     9      180.000000        0.000157         2
        10         1         2        12     9        0.000000        0.498213         3
        10         1         2        12     9      180.000000       -0.002039         4
        10         1         2        13     9        0.000000       -0.003590         1
        10         1         2        13     9      180.000000        0.000158         2
        10         1         2        13     9        0.000000        0.498213         3
        10         1         2        13     9      180.000000       -0.002039         4
        11         1         2        12     9        0.000000       -0.003590         1
        11         1         2        12     9      180.000000        0.000157         2
        11         1         2        12     9        0.000000        0.498213         3
        11         1         2        12     9      180.000000       -0.002039         4
        11         1         2        13     9        0.000000       -0.003590         1
        11         1         2        13     9      180.000000        0.000158         2
        11         1         2        13     9        0.000000        0.498213         3
        11         1         2        13     9      180.000000       -0.002039         4
        12         2         3        14     9        0.000000       -0.001823         1
        12         2         3        14     9      180.000000       -0.007041         2
        12         2         3        14     9        0.000000        0.639273         3
        12         2         3        14     9      180.000000       -0.001199         4
        12         2         3        15     9        0.000000       -0.001823         1
        12         2         3        15     9      180.000000       -0.007041         2
        12         2         3        15     9        0.000000        0.639273         3
        12         2         3        15     9      180.000000       -0.001199         4
        13         2         3        14     9        0.000000       -0.001823         1
        13         2         3        14     9      180.000000       -0.007040         2
        13         2         3        14     9        0.000000        0.639271         3
        13         2         3        14     9      180.000000       -0.001200         4
        13         2         3        15     9        0.000000       -0.001823         1
        13         2         3        15     9      180.000000       -0.007040         2
        13         2         3        15     9        0.000000        0.639271         3
        13         2         3        15     9      180.000000       -0.001200         4

[ pairs ]
;       ai        aj funct
         1         4     1
         1        14     1
         1        15     1
         2         5     1
         3         6     1
         3         7     1
         3         8     1
         3         9     1
         3        10     1
         3        11     1
         4        12     1
         4        13     1
         4        16     1
         4        17     1
         4        18     1
         4        19     1
         4        20     1
         4        21     1
         4        22     1
         4        23     1
         4        24     1
         5        14     1
         5        15     1
         6        19     1
         6        20     1
         6        21     1
         6        22     1
         6        23     1
         6        24     1
         7        16     1
         7        17     1
         7        18     1
         7        22     1
         7        23     1
         7        24     1
         8        16     1
         8        17     1
         8        18     1
         8        19     1
         8        20     1
         8        21     1
         9        12     1
         9        13     1
        10        12     1
        10        13     1
        11        12     1
        11        13     1
        12        14     1
        12        15     1
        13        14     1
        13        15     1
