A Gromacs structure file written by ASE 
   24
    1SIO4     C    1   0.309  -0.096   0.042  0.0000  0.0000  0.0000
    1SIO4     C    2   0.267   0.049   0.031  0.0000  0.0000  0.0000
    1SIO4     C    3   0.130   0.065  -0.036  0.0000  0.0000  0.0000
    1SIO4     O    4   0.031   0.004   0.046  0.0000  0.0000  0.0000
    1SIO4    Si    5  -0.128   0.001  -0.005  0.0000  0.0000  0.0000
    1SIO4     C    6  -0.194   0.175  -0.033  0.0000  0.0000  0.0000
    1SIO4     C    7  -0.146  -0.096  -0.165  0.0000  0.0000  0.0000
    1SIO4     C    8  -0.236  -0.081   0.126  0.0000  0.0000  0.0000
    1SIO4     H    9   0.314  -0.144  -0.056  0.0000  0.0000  0.0000
    1SIO4     H   10   0.240  -0.153   0.105  0.0000  0.0000  0.0000
    1SIO4     H   11   0.409  -0.103   0.088  0.0000  0.0000  0.0000
    1SIO4     H   12   0.264   0.093   0.131  0.0000  0.0000  0.0000
    1SIO4     H   13   0.342   0.105  -0.027  0.0000  0.0000  0.0000
    1SIO4     H   14   0.109   0.172  -0.047  0.0000  0.0000  0.0000
    1SIO4     H   15   0.132   0.019  -0.135  0.0000  0.0000  0.0000
    1SIO4     H   16  -0.184   0.235   0.058  0.0000  0.0000  0.0000
    1SIO4     H   17  -0.138   0.225  -0.113  0.0000  0.0000  0.0000
    1SIO4     H   18  -0.299   0.173  -0.061  0.0000  0.0000  0.0000
    1SIO4     H   19  -0.252  -0.102  -0.195  0.0000  0.0000  0.0000
    1SIO4     H   20  -0.091  -0.048  -0.246  0.0000  0.0000  0.0000
    1SIO4     H   21  -0.109  -0.198  -0.153  0.0000  0.0000  0.0000
    1SIO4     H   22  -0.202  -0.184   0.143  0.0000  0.0000  0.0000
    1SIO4     H   23  -0.340  -0.084   0.094  0.0000  0.0000  0.0000
    1SIO4     H   24  -0.230  -0.027   0.220  0.0000  0.0000  0.0000

